165
Properties=species:S:1:pos:R:3:forces:R:3 energy=-173317.4089177546 dipole="1.325181446010288 2.4926532663106555 -3.766442079985404" pbc="F F F"
O        7.64546914      -7.29935858       4.30920602      -0.01115859      -0.01013015      -0.00077133
P        7.78183773      -6.03527045       3.20843708      -0.00478225      -0.02447690       0.02067167
O        9.22722894      -5.90595699       2.71268258      -0.02581388      -0.01522093      -0.00318817
O        7.06193477      -4.86157777       3.87910554       0.00133697      -0.01259841      -0.00509078
O        6.78462540      -6.55783799       1.96560811       0.03219021       0.00755904       0.01676359
C        7.28919958      -6.97963917       0.66656200       0.01424391      -0.00082275       0.02699659
C        6.95292291      -5.95972570      -0.43591394       0.00257110      -0.00920455       0.00071991
O        5.50344422      -5.72039398      -0.46910019      -0.00941024      -0.00977019      -0.00313675
C        7.58467082      -4.55339188      -0.29635709       0.00637634      -0.00514221      -0.01686644
O        7.70781328      -4.03108760      -1.66785428       0.00113129       0.00344528      -0.00627349
C        6.54074521      -3.80719519       0.53999559       0.00390808      -0.00318817      -0.02118589
C        5.22908260      -4.35119533      -0.03702567      -0.00401092      -0.00359954      -0.00709625
N        4.09288651      -4.33014180       0.88124216      -0.00390808      -0.00277679      -0.00231399
C        4.06215539      -4.38745016       2.27636412       0.01378111      -0.00035995       0.00344528
N        2.83051184      -4.29617493       2.77498591       0.00570785       0.00056564       0.00581069
C        2.00600093      -4.17886171       1.65190735       0.00077133       0.00154266       0.00611923
C        0.60128952      -4.02567838       1.50244309      -0.00164551       0.00082275       0.00529647
N       -0.27288566      -4.00017983       2.54445584       0.00277679      -0.00370239       0.00087418
N        0.11197207      -3.92787645       0.22785890      -0.01049010      -0.00385666       0.00210830
C        0.96309706      -3.98064422      -0.82642608      -0.01460387      -0.00437088      -0.01007873
N        2.30419712      -4.11963032      -0.80385661      -0.01162139      -0.00015427       0.00365097
C        2.76955882      -4.20679015       0.46676795      -0.00683913       0.00375381      -0.00071991
H        8.37832026      -7.14550720       0.69993280       0.01712355      -0.00329101      -0.00035995
H        6.78406022      -7.93069067       0.43061377       0.00282821       0.01013015       0.00138840
H        7.24148909      -6.40955051      -1.40133851      -0.01110717       0.00545074      -0.01465529
H        4.90710258      -3.78005074      -0.91601170       0.00380523       0.02015745       0.00478225
H        6.66582618      -4.07658746       1.59548280      -0.00879317       0.02041456      -0.01758635
H        6.61966160      -2.72394216       0.45107497       0.01192992      -0.00267395      -0.00406234
H        8.58236758      -4.56879073       0.16748285       0.00154266      -0.01424391       0.00293106
H        4.97101179      -4.49885805       2.86566103       0.01095290       0.00226257       0.00570785
H        0.10749355      -3.84595938       3.47835189      -0.01630080      -0.00678771       0.02154585
H       -1.23645422      -3.67036262       2.36406695       0.01110717       0.00447372       0.01501524
H        0.48818025      -3.88597823      -1.80632632      -0.00000000      -0.01275267      -0.01707213
P        7.82445048      -2.39527920      -2.04090726       0.01028441      -0.00838180       0.00149124
O        8.46137394      -2.36489389      -3.43305854      -0.00658202      -0.00534789       0.00257110
O        8.39432136      -1.59815751      -0.86625340       0.03630398      -0.00997588      -0.01486098
O        6.21205765      -1.91712650      -2.13540231       0.03512127      -0.00159408      -0.01182708
C        5.39663403      -2.28856539      -3.28635747       0.03069897      -0.00380523       0.00056564
C        4.96741022      -1.05391592      -4.08725171       0.01588942      -0.00838180      -0.00282821
O        4.09333602      -0.20876807      -3.25214550       0.02144300      -0.00406234       0.00262253
C        6.11837443      -0.13264813      -4.56941861       0.00308532      -0.00473083      -0.00406234
O        5.77422741       0.30139768      -5.91947045      -0.00781615       0.00159408       0.00097702
C        6.09442270       1.03450051      -3.55776970      -0.00251968       0.00437088      -0.01444960
C        4.59143292       1.17094677      -3.28460511       0.00694198       0.00282821      -0.00401092
N        4.20577669       1.81515664      -2.03188275       0.00071991      -0.00498794      -0.00185119
C        4.91907952       1.92790542      -0.83468339       0.01486098      -0.00601638      -0.00509078
N        4.17355310       2.33263303       0.18745033       0.00797042      -0.00267395       0.00030853
C        2.89049103       2.47424467      -0.34764714       0.00539932      -0.00092560      -0.00015427
C        1.62059977       2.72539008       0.24693126       0.00215973      -0.00339386       0.00035995
N        1.41249260       2.89328634       1.58019512       0.00596496       0.00082275      -0.00313675
N        0.54285107       2.80171786      -0.59434258      -0.00771331      -0.00133697      -0.00113129
C        0.70101864       2.56892977      -1.91828740      -0.01336974       0.00087418      -0.00678771
N        1.83099426       2.21865808      -2.56996703      -0.00503936       0.00565643       0.00318817
C        2.89222675       2.18280781      -1.72916713      -0.00066849       0.00015427      -0.00005142
H        5.94219492      -2.97212423      -3.95703464       0.01156997      -0.00827895      -0.00925597
H        4.49939398      -2.80596442      -2.90540719       0.02421979       0.02108305       0.00694198
H        4.37659610      -1.39965874      -4.95390256       0.00431945       0.01362685      -0.00817611
H        4.07149796       1.70486965      -4.09481994       0.01424391       0.01295836      -0.00133697
H        6.63476523       0.72307465      -2.65081902      -0.01326689       0.01393538      -0.01136428
H        6.54245517       1.95679238      -3.95606389      -0.00298248       0.00514221      -0.01018157
H        7.08538028      -0.65710963      -4.57462080       0.00437088      -0.00555358       0.00797042
H        5.97631569       1.68574295      -0.77417429       0.01167281       0.00853606       0.00082275
H        2.14400596       2.58304631       2.22159038      -0.00251968       0.01475813       0.02375699
H        0.43915422       2.83653037       1.92517650       0.01331832      -0.00853606       0.00735336
H       -0.21153427       2.65160766      -2.51376689      -0.00982161      -0.00622207      -0.02308851
O       -6.51701510       5.29023387       1.92445068       0.00961593       0.01038726       0.00704482
P       -7.81584471       4.48964795       2.62245130       0.02365415       0.00740478      -0.00714767
O       -9.02929463       5.43137237       2.64424372      -0.00411377      -0.03908077      -0.02067167
O       -7.32083387       3.83425356       3.91306506      -0.01969465       0.00138840      -0.00982161
O       -8.06813543       3.22111136       1.52880149      -0.03342434       0.02519681       0.02432264
C       -8.73152479       3.50494174       0.25917135      -0.00761047       0.00653060       0.01830626
C       -7.77935239       3.39511993      -0.93341983      -0.00251968       0.01640364       0.00987304
O       -6.58598357       4.22764400      -0.69816763       0.01162139       0.01995176       0.01213561
C       -7.21743628       2.00291486      -1.29440556      -0.01239272       0.01259841      -0.01028441
O       -8.18534427       1.31658446      -2.12366637      -0.01388396       0.00406234      -0.01064437
C       -5.93054849       2.37701381      -2.06080843       0.00740478      -0.00565643       0.01558089
C       -5.42742423       3.62953973      -1.32446994       0.01419249       0.01095290       0.00056564
N       -4.38872257       3.32630094      -0.28184106       0.00899886      -0.00807326       0.01028441
C       -3.04559568       3.42535766      -0.68321554       0.01640364       0.01049010      -0.04154903
O       -2.70757874       3.68281563      -1.85978567       0.00143982       0.00730193       0.04237178
N       -2.12094927       3.21665833       0.32639337      -0.00951308       0.00195404       0.01054152
C       -2.39122782       2.82965292       1.64554377       0.02293424       0.00267395       0.01552946
O       -1.43649237       2.65861971       2.45346668      -0.00719909       0.00215973      -0.02535108
C       -3.79699625       2.62688231       1.96830158      -0.00149124       0.00447372       0.00539932
C       -4.17410051       2.12103475       3.34230444      -0.00118271      -0.00344528      -0.00102844
C       -4.72338048       2.87791414       0.98891322      -0.00303390      -0.00694198      -0.00293106
H       -9.53787167       2.76361608       0.12939917       0.00581069      -0.00560501      -0.02293424
H       -9.18278033       4.50889045       0.28753739      -0.00596496       0.00467941       0.00282821
H       -8.30852751       3.79067457      -1.82117741      -0.00210830      -0.01496382      -0.00992446
H       -4.96433004       4.36576482      -1.98995879      -0.00169693       0.01342116      -0.01090148
H       -5.18310648       1.58046920      -2.08232072       0.01187850      -0.00822753      -0.01907759
H       -6.19974215       2.64278999      -3.09609013       0.00663345      -0.00905028       0.02236860
H       -7.00666419       1.40598947      -0.39077444      -0.00287964       0.01799772      -0.02164869
H       -5.78846836       2.74644116       1.17034847      -0.00231399       0.00802184      -0.00581069
H       -5.25928096       2.19699488       3.50618119      -0.00509078      -0.01275267      -0.01532378
H       -3.66049424       2.70480746       4.12565618      -0.01100432       0.00133697      -0.00061706
H       -3.86918331       1.06633726       3.47208287       0.01105574      -0.00020569      -0.00323959
H       -1.11420722       3.16381358       0.01098062      -0.00941024       0.00046280      -0.00545074
P       -8.10262084      -0.36162713      -2.27072563      -0.01290694       0.00653060       0.00668487
O       -9.14289656      -0.70035987      -3.33844512       0.00632491      -0.01208419      -0.00005142
O       -8.11107109      -1.01334671      -0.88636399      -0.02000318      -0.00174835      -0.00298248
O       -6.54771526      -0.61225602      -2.83187965      -0.02781934       0.00030853       0.00349670
C       -6.17709568      -0.36037008      -4.21693151      -0.01604368       0.00190262       0.01480956
C       -5.58410037      -1.62812545      -4.84794763      -0.01085006       0.00473083       0.00246826
O       -4.43401700      -2.10007703      -4.07023944      -0.01244414       0.00519363       0.00761047
C       -6.53386510      -2.84958430      -4.94791288      -0.00575927      -0.00133697      -0.00930739
O       -6.26169653      -3.64440128      -6.13575019      -0.00128555      -0.01846052      -0.00426803
C       -6.25946752      -3.62131422      -3.63793153       0.00092560      -0.00308532      -0.00879317
C       -4.76346400      -3.34102030      -3.37820013      -0.00267395      -0.00118271      -0.00365097
N       -4.34022171      -3.25525365      -1.95613218      -0.00025711       0.00761047       0.00226257
C       -2.99315225      -3.58229803      -1.68029569       0.01085006      -0.01079863      -0.01948896
O       -2.17991513      -3.93251907      -2.56066712      -0.00704482      -0.00287964       0.02663663
N       -2.63228915      -3.49348121      -0.34595442      -0.01748350      -0.00786758       0.00334243
C       -3.43564102      -3.07673414       0.71937056       0.00174835       0.00030853       0.01403822
O       -2.95777723      -3.03029816       1.88703708      -0.00287964      -0.00473083      -0.01532378
C       -4.78929675      -2.67903166       0.36772190      -0.00133697       0.00627349       0.00447372
C       -5.68368861      -2.09814591       1.43899853      -0.00447372      -0.00087418      -0.00102844
C       -5.16717694      -2.77397828      -0.94593451      -0.00395950       0.01013015      -0.01223845
H       -7.04496206      -0.02095939      -4.80707921      -0.00231399      -0.00683913      -0.00174835
H       -5.41308924       0.43346005      -4.21487326      -0.01619795       0.00236542      -0.01121001
H       -5.21112940      -1.35620021      -5.85095164      -0.00560501      -0.00843322      -0.00190262
H       -4.13579330      -4.12905257      -3.81312159      -0.00786758      -0.01018157       0.00761047
H       -6.91225784      -3.23077157      -2.84778741       0.01506667       0.00668487      -0.00555358
H       -6.45396714      -4.69805123      -3.74760776       0.00437088      -0.00478225      -0.00586212
H       -7.58621294      -2.54974132      -5.04074290      -0.00683913       0.01280409       0.00149124
H       -6.14619669      -2.42303792      -1.25835106      -0.00128555      -0.00411377       0.00344528
H       -5.85778415      -2.82820585       2.24892721      -0.00365097       0.00678771       0.00776473
H       -6.65122673      -1.79185349       1.01506697      -0.00169693       0.00498794      -0.00164551
H       -5.20350696      -1.21373013       1.89683993      -0.00359954      -0.00179977      -0.00277679
H       -1.61245270      -3.68274033      -0.13468748      -0.01388396       0.00323959      -0.00632491
C       -2.30082273      -0.13574926       0.52251727      -0.00406234      -0.00015427       0.00853606
C       -3.26313012      -0.01447692      -0.47418618       0.00092560       0.00010284       0.00277679
C       -2.92490958      -0.17316612      -1.84507206      -0.00755904       0.00287964       0.00334243
C       -1.60966024      -0.42158446      -2.20389279       0.00298248      -0.00133697      -0.00714767
C       -0.58535645      -0.53101455      -1.21393566      -0.00627349       0.00035995       0.00555358
C        0.76802030      -0.74379768      -1.58277877      -0.00601638      -0.00138840      -0.01156997
C        1.71447890      -0.76904872      -0.57534885       0.00776473      -0.00025711       0.01552946
N        3.08686421      -0.90313677      -0.66233641       0.00221115      -0.00030853      -0.00786758
C        3.63373911      -0.81699716       0.60790774      -0.00210830       0.00066849       0.00498794
C        4.99403794      -0.81652816       0.95667637       0.00673629       0.00236542      -0.00185119
C        5.31703411      -0.69495649       2.31149649      -0.00133697       0.00586212       0.00442230
C        4.30453255      -0.54404706       3.29992423      -0.00313675       0.00437088       0.00190262
C        2.94941299      -0.51761862       2.95155733      -0.00678771       0.00159408       0.00719909
C        2.58333909      -0.67109690       1.58554688      -0.00066849      -0.00149124       0.00087418
C        1.35344263      -0.64814703       0.82177688       0.00015427      -0.00133697      -0.00071991
N        0.03681154      -0.53805297       1.16975064      -0.00102844      -0.00169693       0.00426803
C       -0.94888994      -0.40533900       0.18076617      -0.00236542      -0.00061706      -0.00092560
C       -0.36221243      -0.56000440       2.60354980      -0.00293106      -0.00308532       0.00354812
H       -2.60249571      -0.01732011       1.56002008      -0.00169693       0.00097702       0.00920455
H       -4.29550245       0.19226983      -0.18552158      -0.00035995       0.00565643       0.00658202
H       -3.69884069      -0.12967671      -2.60919038      -0.00272537       0.00591354       0.00154266
H       -1.32500893      -0.54147349      -3.25255946      -0.00514221       0.00056564      -0.00488510
H        1.05258158      -0.85426224      -2.63121616      -0.00462799      -0.00041138       0.00838180
H        3.60583106      -0.83235729      -1.55073494      -0.00257110       0.00179977       0.00251968
H        5.75324363      -0.88580262       0.17740030       0.00231399       0.00169693      -0.00190262
H        6.36777997      -0.70434005       2.61509285       0.00164551       0.00478225       0.00370239
H        4.59142037      -0.43850173       4.34949553      -0.00462799       0.00514221       0.00401092
H        2.20076994      -0.37094014       3.72967198      -0.00899886       0.00185119       0.00601638
H        0.41498218      -1.07261784       3.17452617      -0.00668487      -0.00550216       0.00606780
H       -0.50814339       0.46931048       2.96060613       0.00370239      -0.00411377       0.00786758
H       -1.28736236      -1.13905612       2.70324847      -0.00539932       0.00143982       0.00848464
H       -5.30257558      -3.86525669      -6.14911192       0.00431945      -0.00416519      -0.00272537
H        8.07243440      -8.11486311       3.96077904       0.02668805       0.00627349       0.01326689
H       -6.47585622       5.10787649       0.94685305      -0.01239272      -0.01321547       0.01295836
H        6.50336363       0.87594934      -6.24317558       0.00416519      -0.01357543       0.00226257
