163
Properties=species:S:1:pos:R:3:forces:R:3 energy=-174191.64361123004 pbc="F F F"
P       -7.24582361      25.42524508       5.50351415      -0.00529647       0.00683913       0.02267713
O       -7.85794952      24.60586277       6.64665762       0.01121001      -0.00349670       0.02139158
O       -8.08767560      25.94403258       4.33601409       0.00159408      -0.00195404       0.01388396
O       -6.49088515      26.79903237       6.09079053       0.02370557      -0.01768919      -0.00406234
C       -5.40001524      26.70987564       7.04795610       0.00874175       0.00565643       0.00143982
C       -4.55298676      27.99125442       6.97325871       0.00627349       0.00946166      -0.00097702
O       -3.93688339      28.10968233       5.64342582      -0.00591354       0.01882048       0.01208419
C       -5.32162644      29.31780008       7.19261282       0.00087418       0.00097702      -0.00041138
O       -4.37310053      30.25944431       7.80211079      -0.00118271       0.00431945      -0.01655791
C       -5.71059876      29.72431252       5.76371365      -0.00149124       0.00385666       0.00251968
C       -4.48926564      29.26650294       4.94430657      -0.00241684       0.00236542       0.00761047
N       -4.78225836      28.91488757       3.55427409      -0.00601638       0.00035995      -0.00375381
C       -5.86901570      28.18680498       3.04625978      -0.00611923      -0.00653060      -0.00853606
N       -5.86509265      28.11267249       1.72088647      -0.00591354      -0.00683913      -0.01311263
C       -4.72561658      28.82251675       1.32667058      -0.00287964      -0.00797042      -0.00920455
C       -4.25311857      29.17676436       0.02300650       0.00056564      -0.00797042      -0.00123413
O       -4.76477839      28.87631900      -1.09607416      -0.00077133      -0.00658202      -0.01203276
N       -3.09266097      29.98334143       0.08092375       0.00478225      -0.01558089       0.00107986
C       -2.46239053      30.38968169       1.25159996       0.01162139      -0.00246826      -0.00323959
N       -1.32692760      31.13027533       1.11572795       0.01090148      -0.01167281      -0.00061706
N       -2.90833047      30.07246893       2.47783666      -0.00262253      -0.00766189      -0.00406234
C       -4.03480324      29.31988209       2.45156667      -0.00375381      -0.00971877      -0.00591354
P       -4.80902097      31.86140059       8.10635418      -0.00709625      -0.01352400       0.01568373
O       -3.90484894      32.30908479       9.25758856      -0.00406234       0.00323959      -0.00082275
O       -6.33499118      31.97177138       8.16039069      -0.00426803      -0.00704482       0.04895381
O       -4.36069781      32.64251577       6.68681315      -0.01635222      -0.00498794       0.03558407
C       -3.11833555      33.39359871       6.55895771      -0.01810057      -0.01660933       0.00565643
C       -3.38893653      34.89245040       6.36380366       0.00005142      -0.00653060      -0.00246826
O       -4.02092642      35.10981016       5.05547491       0.00437088       0.00514221       0.00200546
C       -4.32988034      35.54334636       7.41053560      -0.00035995      -0.00488510      -0.00514221
O       -3.80559926      36.87735836       7.68495821       0.00483367      -0.01635222       0.00797042
C       -5.68361298      35.58918767       6.67393951      -0.00066849       0.00462799       0.00030853
C       -5.23445501      35.89131510       5.23579592       0.01059295       0.00246826      -0.00082275
N       -6.18966025      35.52631575       4.18783609      -0.00421661       0.00298248      -0.00169693
C       -7.40086045      34.83070668       4.29869913      -0.00668487      -0.00231399      -0.00308532
N       -7.98694511      34.61614969       3.12835826      -0.01069579      -0.00149124       0.00365097
C       -7.12037621      35.18153294       2.18975942      -0.00997588      -0.00395950       0.00776473
C       -7.15592643      35.16514185       0.75758269      -0.01887190      -0.00406234      -0.01018157
O       -8.02398819      34.62599028       0.01249671      -0.00385666       0.01126143       0.00236542
N       -6.04400937      35.83042903       0.19033984      -0.00622207       0.00190262       0.01511809
C       -5.00868065      36.41177745       0.91361851       0.00452514       0.00719909      -0.00678771
N       -4.03374408      37.03174634       0.20059027      -0.00735336       0.01712355       0.00977019
N       -4.94417293      36.38989958       2.25825582      -0.00519363      -0.00611923       0.00617065
C       -6.00275715      35.76160937       2.82782167      -0.00581069      -0.00668487      -0.00215973
H       -6.60351956      27.71884585       3.69698079       0.00030853       0.00272537       0.00159408
H       -2.69315728      30.29216946      -0.84185597      -0.00277679      -0.01156997       0.00066849
H       -1.09739233      31.56807626       0.20394293       0.00478225       0.00041138      -0.00138840
H       -1.00159578      31.61054797       1.95509349       0.00611923       0.00848464       0.00056564
H       -3.71993026      30.05129316       4.89862076       0.00179977      -0.00313675       0.00529647
H       -5.89646815      30.79784636       5.66503698       0.01085006       0.00817611       0.00462799
H       -6.61633642      29.17884598       5.46784122       0.00596496      -0.00920455       0.00164551
H       -6.18986859      29.19825577       7.85800420      -0.00082275       0.00138840      -0.00668487
H       -3.74008879      27.89496407       7.71282792       0.00761047       0.01866621      -0.00226257
H       -5.79938442      26.58484493       8.07131407      -0.01624937       0.02164869      -0.00961593
H       -7.80056179      34.52533700       5.26146895      -0.00421661      -0.00467941       0.00992446
H       -5.97325559      35.81915202      -0.85954661      -0.01007873       0.00966735       0.00812469
H       -3.99085730      36.98779056      -0.83513659       0.00498794       0.00642776      -0.00195404
H       -3.21828454      37.36620031       0.71204684       0.01732924      -0.00488510      -0.00560501
H       -4.99672573      36.95967757       5.09649069       0.01578657       0.00262253       0.00390808
H       -6.37867203      36.33816967       7.08225178       0.01115859       0.01676359       0.00370239
H       -6.13750710      34.58825477       6.73419449      -0.01187850       0.00786758       0.01095290
H       -4.38160003      34.96274421       8.34530602      -0.00318817      -0.00318817      -0.01115859
H       -4.41406554      37.31071890       8.32423832       0.01717497       0.00025711       0.01085006
H       -2.41384626      35.41365610       6.36742090      -0.00005142      -0.00195404      -0.00853606
H       -2.59240383      33.00260400       5.67211443      -0.00308532      -0.00426803       0.00735336
H       -2.48523864      33.25961439       7.45077033      -0.01192992      -0.03974926      -0.00761047
O       -5.49958494      36.43342444      -8.65075250      -0.01059295       0.00863891      -0.02488828
C       -4.61276097      37.55477908      -8.92512950       0.00375381      -0.01121001       0.00447372
C       -3.65783491      37.76492920      -7.75307940       0.00750762      -0.00246826       0.00251968
O       -4.40999294      38.20130551      -6.56600794       0.02252287      -0.00380523      -0.00375381
C       -2.83171943      36.54940295      -7.26978592      -0.00570785      -0.00617065      -0.00051422
O       -1.67052737      36.42319308      -8.13003321      -0.01475813      -0.03522412       0.01213561
C       -2.53236983      36.93456837      -5.80393835       0.00771331       0.00894744      -0.00272537
C       -3.84018159      37.63276801      -5.37151352       0.00910171       0.00221115      -0.00658202
N       -4.85166119      36.70455740      -4.74078377      -0.00210830       0.00035995       0.00113129
C       -4.84532379      36.54969850      -3.32859015       0.00133697       0.00627349       0.00128555
O       -3.90527517      37.08080480      -2.66428502       0.00005142       0.00375381      -0.00431945
N       -5.84857036      35.83656006      -2.73520859      -0.00560501       0.00169693       0.00663345
C       -6.80152844      35.22363059      -3.48845300       0.00231399      -0.00591354       0.01213561
N       -7.77316904      34.54015603      -2.84485462       0.00071991       0.00534789      -0.00802184
C       -6.77467783      35.29281843      -4.92303732      -0.00581069      -0.02113447       0.00627349
C       -5.79368533      36.05099136      -5.50223613       0.01578657       0.01532378      -0.00539932
P       -0.78193792      34.99606222      -8.16773108      -0.00483367      -0.00246826      -0.00046280
O       -0.27350332      34.84200007      -9.60757117       0.02715085       0.01830626       0.01578657
O       -1.54169983      33.85089789      -7.49475007      -0.02072309      -0.01126143      -0.03877224
O        0.46906158      35.52558336      -7.17719132      -0.02267713      -0.01290694      -0.00555358
C        1.50482671      34.58107530      -6.76090479      -0.01758635       0.01131285       0.00606780
C        1.61867648      34.66451093      -5.23567172      -0.00719909       0.01105574       0.01038726
O        0.38860790      34.13144360      -4.63052295       0.00714767       0.00925597       0.01712355
C        2.79364168      33.85921799      -4.62366466       0.00107986       0.00565643      -0.00406234
O        3.29452774      34.64202192      -3.50120392       0.01439818      -0.00797042      -0.00817611
C        2.11363805      32.55824072      -4.15877243       0.00632491       0.00735336      -0.00143982
C        0.73793177      33.07541951      -3.69987257       0.00596496       0.00241684      -0.00077133
N       -0.33787330      32.06373248      -3.70385433       0.00159408      -0.00863891       0.00179977
C       -0.93774253      31.68072394      -2.46807038       0.00185119       0.00082275       0.00097702
O       -0.53885726      32.21795197      -1.39483193      -0.00262253       0.00488510      -0.00246826
N       -1.93502910      30.75050683      -2.48503736      -0.00987304      -0.00467941       0.00329101
C       -2.34142096      30.18627725      -3.65234277       0.00159408       0.00000000       0.00910171
N       -3.35181617      29.29026703      -3.59513824       0.00827895       0.00277679      -0.01059295
C       -1.71876547      30.52281331      -4.90718972      -0.01594084      -0.02221433      -0.00719909
C       -0.73473424      31.47103568      -4.88638429       0.03023618       0.02051740      -0.00390808
H       -5.71744743      36.18326461      -6.57924344       0.00735336      -0.00812469       0.01213561
H       -7.51013856      34.76779205      -5.53277503       0.01110717       0.00082275       0.00226257
H       -7.82415439      34.52379364      -1.81050328       0.00107986       0.00699340       0.01121001
H       -8.49291011      34.05329971      -3.37723795       0.00339386       0.00092560      -0.00015427
H       -3.67797210      38.42975805      -4.63589084      -0.00678771      -0.00812469       0.00334243
H       -1.70965152      37.66750888      -5.78084359       0.01192992       0.01306121      -0.01558089
H       -2.26797794      36.09155572      -5.15535236      -0.00966735      -0.00457656      -0.01398680
H       -3.42626175      35.62569950      -7.32071343      -0.00529647      -0.00431945      -0.00622207
H       -2.96105871      38.57457581      -8.04386827       0.01542662      -0.00061706       0.03085324
H       -5.19591761      38.47580131      -9.08824525      -0.00761047      -0.03064755      -0.00416519
H       -4.01459445      37.34728371      -9.83139884      -0.00359954      -0.02427122       0.00930739
H       -0.25020591      31.84196615      -5.78941951       0.00565643       0.00478225       0.01316405
H       -2.06459643      30.08412132      -5.84364061       0.01285552       0.00596496       0.00318817
H       -3.88109802      29.16426608      -2.71309042       0.00462799      -0.00071991       0.00097702
H       -3.77329494      28.95465596      -4.46057699       0.00601638       0.00483367      -0.00586212
H        0.77448964      33.47370687      -2.67893887       0.00354812      -0.00370239       0.00020569
H        2.66192651      32.04845752      -3.35182769       0.00534789       0.00401092      -0.00200546
H        2.00814598      31.86674741      -5.01180374      -0.00740478       0.00118271       0.00637634
H        3.60792455      33.68072837      -5.34712062      -0.01768919      -0.00005142      -0.01861479
H        1.70467037      35.72454291      -4.94278136      -0.00077133       0.01126143       0.00478225
H        2.45745256      34.88594885      -7.22879379      -0.02483686       0.02509397      -0.00236542
H        1.26246125      33.55143744      -7.07317484      -0.02144300       0.01604368       0.00447372
O       -5.95732184      24.55802132       4.84998250      -0.02910489       0.02391126      -0.00704482
H       -5.74905688      23.78456682       5.42102714       0.02128874       0.04160045       0.00200546
O       -7.86723745      35.63880647      -8.11328641       0.02385984       0.00750762      -0.02663663
P       -7.01198929      36.31515969      -9.38713979      -0.00185119       0.01892332      -0.01295836
O       -7.54612118      37.71684320      -9.70717081      -0.00313675       0.01943754       0.00077133
O       -6.95702937      35.22458222     -10.46192493       0.00545074       0.00241684       0.00719909
H        3.97512237      34.10123000      -3.04219373       0.02797360       0.00539932      -0.00889602
H       -8.10921896      36.32849429      -7.45238814       0.00735336      -0.01594084      -0.01455244
H       -4.75067380      25.84964159       6.80996798      -0.01722639      -0.00431945      -0.00915313
C       -6.56428751      31.57382116       1.57107872       0.00349670       0.00241684      -0.00251968
C       -6.32366475      31.74586133       2.92911443       0.00133697      -0.00221115      -0.00005142
C       -5.21419303      32.50109620       3.39296866       0.00200546      -0.00493652      -0.00395950
C       -4.34392955      33.07066906       2.47861442      -0.00071991      -0.00668487      -0.00380523
C       -4.54860575      32.92404839       1.07137081       0.00097702      -0.00406234      -0.00581069
C       -3.66079562      33.51675493       0.13417272       0.00185119      -0.00185119      -0.00370239
C       -3.91546463      33.32308224      -1.21231503      -0.00159408      -0.00107986      -0.00051422
N       -3.23251023      33.77331635      -2.32710727      -0.00591354       0.00066849      -0.00226257
C       -3.83778832      33.28070802      -3.47657225      -0.00251968      -0.00077133       0.00046280
C       -3.44713464      33.45516942      -4.81365112      -0.00395950      -0.00113129      -0.00077133
C       -4.21163012      32.82359240      -5.80077694      -0.00087418       0.00102844      -0.00293106
C       -5.33312309      32.01825235      -5.46812348       0.00035995       0.00077133      -0.00282821
C       -5.72223424      31.83782314      -4.13665047       0.00205688       0.00154266      -0.00102844
C       -4.98529114      32.48675952      -3.11030314      -0.00087418      -0.00092560      -0.00051422
C       -5.04615874      32.54415769      -1.66767699      -0.00169693      -0.00123413      -0.00226257
N       -5.93734944      32.04608719      -0.76052694      -0.00411377      -0.00041138      -0.00241684
C       -5.69910977      32.17212358       0.61499092       0.00015427      -0.00025711      -0.00390808
C       -7.17578151      31.38120545      -1.24737144      -0.00431945       0.00123413      -0.00488510
H       -7.40408752      30.95639859       1.25872911       0.00272537       0.00791900      -0.00097702
H       -7.00455849      31.28024263       3.64454619       0.00154266      -0.00035995      -0.00200546
H       -5.04817989      32.64309683       4.46058017       0.00411377      -0.01105574      -0.00190262
H       -3.49530395      33.66661324       2.81896703       0.00123413      -0.01264983      -0.00308532
H       -2.81109879      34.10922770       0.47946330       0.00077133      -0.00107986      -0.00025711
H       -2.36251357      34.30365389      -2.29902600      -0.00354812      -0.00133697      -0.00437088
H       -2.55707266      34.02392523      -5.07811671      -0.00735336       0.00169693      -0.00128555
H       -3.91087163      32.94202627      -6.84383176      -0.00467941       0.00097702      -0.00431945
H       -5.89526260      31.52179535      -6.26382320       0.00200546      -0.00041138      -0.00061706
H       -6.56582048      31.18792205      -3.90603830       0.00509078       0.00107986      -0.00323959
H       -7.99265483      31.57160480      -0.54465819      -0.00113129      -0.00282821       0.00118271
H       -7.45332699      31.82781594      -2.20530480      -0.00390808       0.00416519      -0.00452514
H       -6.99408702      30.30134107      -1.35418783      -0.00113129       0.00195404      -0.00791900
