163
Properties=species:S:1:pos:R:3:forces:R:3 energy=-174191.49436145733 dipole="-3.159122329092022 2.003242664766266 -6.366858051809701" pbc="F F F"
H        8.53497936      -6.05242238       5.25859287       0.00390808      -0.01414107      -0.01326689
O        9.32229437      -5.80835799       4.71990707       0.01650648      -0.02170011      -0.00313675
P        8.97553009      -4.46233324       3.77537555       0.00370239       0.00884460       0.01136428
O       10.32760919      -3.93130111       3.29486738       0.02499112       0.00627349      -0.00267395
O        7.96621918      -3.57629016       4.51337323      -0.01897474       0.01480956       0.02411695
O        8.11450806      -5.11661331       2.49583849      -0.01686644       0.00833037       0.00303390
C        8.73231995      -5.44239363       1.21835957       0.00133697      -0.00560501      -0.00966735
C        8.32087214      -4.45627849       0.11008567       0.00282821       0.00411377      -0.00452514
O        6.86285111      -4.46749296      -0.07087322       0.00529647       0.00766189       0.00437088
C        8.67838063      -2.96927993       0.34164218      -0.00149124      -0.00293106      -0.00308532
O        8.84832874      -2.38781343      -1.00039801      -0.00421661      -0.01871763      -0.02648236
C        7.44488955      -2.44521948       1.08934629      -0.00601638      -0.00329101      -0.00339386
C        6.29974748      -3.20427077       0.40584776      -0.00051422       0.00272537      -0.00215973
N        5.12879265      -3.47083693       1.23926518       0.00894744       0.00735336       0.00745620
C        5.03475708      -3.72369116       2.61488367      -0.02571103      -0.00010284      -0.00653060
N        3.78885978      -3.97056220       3.00775503       0.01126143      -0.00303390       0.00447372
C        3.02196352      -3.89132735       1.83720292       0.01522093      -0.00308532       0.00889602
C        1.61333942      -4.03433666       1.61754546      -0.02504255      -0.01049010       0.01439818
O        0.71444333      -4.27516457       2.47522608       0.00884460      -0.00462799      -0.00179977
N        1.26526152      -3.85765016       0.25646329      -0.00056564      -0.00385666       0.00272537
C        2.15979121      -3.56573414      -0.76563630      -0.00915313      -0.00061706      -0.00509078
N        1.64479047      -3.44212452      -2.02170229      -0.00107986      -0.00457656      -0.00581069
N        3.48043241      -3.42813557      -0.56729786       0.00534789      -0.00714767       0.00730193
C        3.84005502      -3.59045994       0.72985694       0.00776473      -0.00493652       0.00617065
H        9.83207331      -5.46549219       1.30128048      -0.00452514       0.00689056       0.00107986
H        8.36878108      -6.44553243       0.94350713       0.00879317      -0.01090148       0.00215973
H        8.77168904      -4.81149563      -0.83237011       0.00313675      -0.00694198      -0.00164551
H        5.91990217      -2.65121045      -0.46152971      -0.00149124      -0.01815199      -0.00401092
H        7.53059316      -2.70766660       2.15005876      -0.00467941       0.01100432       0.00056564
H        7.33057271      -1.36347784       1.01193066      -0.00416519      -0.00797042      -0.01434676
H        9.61217352      -2.83380248       0.90701586      -0.00658202      -0.00154266       0.00287964
H        5.91086532      -3.71269984       3.26018006       0.00951308      -0.00041138       0.00421661
H        0.24287460      -3.92976727       0.02591500      -0.00925597      -0.00719909      -0.00205688
H        2.25821394      -3.02418126      -2.72242033      -0.00015427      -0.00493652      -0.00128555
H        0.62482518      -3.31484077      -2.15409004      -0.02108305       0.00051422       0.00179977
P        8.69745682      -0.75375288      -1.36106892       0.02879636      -0.00205688      -0.00329101
O        9.46223053      -0.57915526      -2.67723038       0.02067167      -0.01316405      -0.03758953
O        8.99510032       0.11859550      -0.13985119       0.02041456       0.00920455       0.02051740
O        7.05133879      -0.56981347      -1.62295410       0.01804915       0.02000318       0.00905028
C        6.40166684      -1.14987248      -2.79085806      -0.00293106      -0.00251968       0.00133697
C        5.79613913      -0.07006277      -3.70035282       0.00107986       0.00272537      -0.00401092
O        4.77617052       0.68655010      -2.96344251      -0.00385666       0.00293106       0.00159408
C        6.78876801       0.98423765      -4.25953628       0.00555358       0.00519363       0.00555358
O        6.50893844       1.34153689      -5.64170307       0.00164551      -0.00611923       0.00071991
C        6.62781946       2.15444206      -3.26582397      -0.00077133       0.00822753       0.00262253
C        5.12977825       2.09874263      -2.92030339      -0.00365097       0.00251968      -0.00334243
N        4.73823900       2.64196985      -1.59148998       0.00401092       0.00766189       0.00889602
C        3.34209249       2.63353406      -1.26351885      -0.00884460      -0.00730193      -0.03105893
O        2.51026035       2.30573287      -2.15429979       0.01594084       0.00401092       0.01151854
N        2.96056716       2.94881044       0.00752844      -0.00169693      -0.00005142       0.00827895
C        3.87549988       3.33073545       0.93325408      -0.00869033       0.00611923       0.01876905
N        3.44176203       3.53565100       2.19861708       0.01511809       0.00359954      -0.01023299
C        5.25617319       3.52250389       0.57741115       0.00817611       0.00637634       0.01691786
C        5.64278389       3.14312500      -0.67984057       0.01907759      -0.00365097      -0.01866621
H        7.10120733      -1.76746567      -3.37847951       0.00853606       0.00786758       0.00385666
H        5.58830162      -1.79457926      -2.42085200      -0.00493652      -0.00514221       0.00313675
H        5.28979185      -0.58780522      -4.53471653       0.00143982      -0.00982161      -0.00797042
H        4.51533356       2.63336538      -3.66204370      -0.00390808      -0.00488510      -0.00071991
H        7.24370920       1.91402889      -2.38750160       0.01033584       0.00951308      -0.00627349
H        6.93882060       3.12250339      -3.68316359       0.00143982       0.00462799      -0.00946166
H        7.81689842       0.60247855      -4.26991704       0.00761047       0.00575927      -0.00869033
H        6.67911609       3.21396663      -1.00041385       0.00154266       0.00097702      -0.00231399
H        5.98412651       3.89326154       1.30037743       0.00354812       0.00277679      -0.00555358
H        2.49095748       3.23243669       2.47636038      -0.00437088       0.00287964       0.00149124
H        4.11650052       3.71844798       2.94134869       0.00560501       0.01126143      -0.00015427
H        5.58297958       1.66531671      -5.71380552       0.00251968      -0.00241684      -0.00642776
H       -7.75997457       5.10894196       5.32091888      -0.04381160       0.00005142       0.01630080
O       -7.25952035       4.32364584       5.63935772       0.01465529       0.04124050       0.02252287
P       -7.33212604       3.07755468       4.51464287      -0.01352400      -0.01496382       0.02267713
O       -8.78712710       2.78025136       4.13422837      -0.03455563      -0.00277679       0.00041138
O       -6.41380235       1.99214708       5.08000430       0.03198453      -0.00658202       0.01640364
O       -6.51847810       3.74485378       3.21405602       0.01203276      -0.00781615      -0.00215973
C       -7.19187174       4.20800607       2.01147459       0.00318817       0.00899886      -0.01542662
C       -6.85977554       3.32010877       0.80108077       0.00123413      -0.00673629      -0.00791900
O       -5.41047440       3.29704104       0.56687696      -0.00241684      -0.01208419       0.00524505
C       -7.26329852       1.82977794       0.90349906       0.00087418       0.00149124      -0.00303390
O       -7.50268276       1.39179702      -0.48071199       0.00174835       0.02540250      -0.02992764
C       -6.03002843       1.19327716       1.56176915       0.00498794       0.00164551      -0.00226257
C       -4.87351068       1.98754223       0.93782370      -0.00133697      -0.00678771      -0.00210830
N       -3.68764551       2.15439545       1.77559253      -0.01064437      -0.00771331       0.00334243
C       -3.55056382       2.24456938       3.16780152       0.02483686       0.00349670      -0.00853606
N       -2.28672485       2.40172641       3.54989052      -0.01547804       0.00030853       0.00447372
C       -1.55262607       2.42975103       2.35610887      -0.01588942      -0.00082275       0.00714767
C       -0.14718787       2.54405643       2.11190145       0.02900205       0.00853606       0.01424391
O        0.78727835       2.63679071       2.96268196      -0.01115859       0.00750762      -0.00154266
N        0.15493978       2.53052271       0.72838732      -0.00159408       0.00442230       0.00339386
C       -0.77503328       2.39628801      -0.29475121       0.01275267      -0.00025711      -0.00442230
N       -0.30368450       2.43277763      -1.57321674      -0.00287964       0.00575927      -0.00719909
N       -2.09196851       2.26615609      -0.07136584      -0.00519363       0.00344528       0.00920455
C       -2.40896641       2.28681171       1.24649822      -0.00915313       0.00041138       0.00195404
H       -8.28443124       4.24938688       2.15640272       0.00725051      -0.01336974       0.00401092
H       -6.81446353       5.22378394       1.81209615      -0.01043868       0.02118589      -0.00241684
H       -7.32763762       3.77928936      -0.08633886      -0.00262253       0.00550216       0.00123413
H       -4.51247186       1.50275846       0.02437344      -0.00164551       0.01830626      -0.00812469
H       -6.09023593       1.33826222       2.64691549       0.00226257      -0.00617065       0.00185119
H       -5.95065904       0.12286242       1.36050201       0.00102844       0.00956450      -0.01599226
H       -8.18596111       1.67153149       1.48258894       0.00334243      -0.00010284       0.00133697
H       -4.41013562       2.19123108       3.83242862      -0.00961593      -0.00380523       0.00195404
H        1.16884214       2.63439933       0.47534527       0.00982161       0.00683913      -0.00241684
H       -0.94374994       2.10942805      -2.29958049      -0.00092560       0.00431945      -0.00287964
H        0.70970809       2.33316107      -1.76175414       0.02859067      -0.00066849       0.00262253
P       -7.31806378      -0.17077121      -1.06623133      -0.03208737      -0.00251968       0.00118271
O       -8.10861842      -0.17615022      -2.37843265      -0.02370557       0.01578657      -0.03692104
O       -7.56777754      -1.21704320       0.02307531      -0.02041456      -0.01681502       0.02149442
O       -5.67321885      -0.26876491      -1.37633886      -0.01887190      -0.02113447       0.00761047
C       -5.05624776       0.47733316      -2.46554187       0.00298248      -0.00005142       0.00102844
C       -4.45302761      -0.45920502      -3.52194377      -0.00154266      -0.00431945      -0.00915313
O       -3.44029847      -1.31967025      -2.90088419       0.00791900      -0.00082275       0.00221115
C       -5.44225290      -1.41224764      -4.22635132      -0.00838180      -0.00766189      -0.00529647
O       -4.97425107      -1.56683662      -5.59987763      -0.00205688       0.00128555      -0.00925597
C       -5.30710564      -2.71169623      -3.40866793      -0.00082275      -0.00884460       0.00015427
C       -3.80710691      -2.71930140      -3.06890627       0.00575927      -0.00071991      -0.00257110
N       -3.40313281      -3.45552791      -1.84057946      -0.00107986      -0.00905028       0.00668487
C       -1.99712924      -3.57906268      -1.58308467       0.00694198       0.00822753      -0.02622525
O       -1.18124645      -3.18205695      -2.46103672      -0.01249556      -0.00118271       0.00750762
N       -1.58310226      -4.09436781      -0.38943700       0.00226257      -0.00071991       0.00905028
C       -2.48295136      -4.51147239       0.53634561       0.00910171      -0.00483367       0.01372969
N       -2.00769873      -4.92475518       1.73480416      -0.01722639      -0.00138840      -0.00627349
C       -3.89234294      -4.52455179       0.24974373      -0.00745620      -0.00663345       0.01918043
C       -4.30375304      -3.96707066      -0.93052426      -0.01907759       0.01059295      -0.02072309
H       -5.77582791       1.15935563      -2.94925364      -0.00894744      -0.01115859       0.00509078
H       -4.24305357       1.07682889      -2.02539197       0.00467941       0.00519363       0.00637634
H       -3.94355407       0.17110509      -4.27250048      -0.00611923       0.01342116      -0.00863891
H       -3.21082707      -3.14149094      -3.89089371       0.00545074       0.00298248      -0.00179977
H       -5.92758988      -2.59626436      -2.50959398      -0.00982161      -0.00889602      -0.00231399
H       -5.62400779      -3.61016972      -3.95811659      -0.00107986      -0.00709625      -0.01085006
H       -6.47112858      -1.02092503      -4.21298605      -0.01326689      -0.00529647      -0.00344528
H       -5.35744814      -3.90180786      -1.18977394       0.00025711       0.00174835      -0.00282821
H       -4.61585577      -4.90810061       0.97058494      -0.00318817       0.00246826      -0.00601638
H       -1.02514693      -4.72317450       1.99528712       0.00509078      -0.00169693       0.00030853
H       -2.66176301      -5.12478071       2.49192971      -0.00539932      -0.00776473      -0.00483367
H       -5.56148007      -2.21730464      -6.04534172      -0.00282821       0.00241684      -0.01126143
C        3.90403927      -0.17103625       3.06755926       0.00874175       0.00107986       0.00005142
C        5.16353015       0.17784296       2.58602785      -0.00683913       0.00051422       0.00493652
C        5.42045266       0.24968018       1.18993850       0.00704482       0.00236542       0.00627349
C        4.40489342      -0.01489446       0.28760547      -0.00467941      -0.00277679       0.00025711
C        3.08149722      -0.30464084       0.73655530      -0.00133697      -0.00241684      -0.00190262
C        2.01371914      -0.43646129      -0.19199212       0.02072309       0.00169693      -0.00210830
C        0.74541100      -0.65063180       0.31225518      -0.02015745      -0.00442230       0.00257110
N       -0.47388501      -0.75200744      -0.33429451       0.00498794      -0.00221115       0.02853925
C       -1.47748449      -0.98124623       0.59832285       0.00992446       0.00215973      -0.00781615
C       -2.85697551      -1.11311155       0.37866465      -0.00174835      -0.00185119       0.01043868
C       -3.66081007      -1.38780716       1.48931009      -0.00025711       0.00000000      -0.00236542
C       -3.12528635      -1.45008508       2.80327351       0.00725051      -0.00118271       0.00473083
C       -1.75790990      -1.27082735       3.03048513      -0.00411377      -0.00246826       0.00596496
C       -0.89943536      -1.05549718       1.91756781       0.00581069       0.00005142      -0.00128555
C        0.51407292      -0.83432874       1.72893566       0.00241684      -0.00071991       0.00251968
N        1.55982522      -0.78324110       2.60501737      -0.00359954      -0.00215973       0.00437088
C        2.84070251      -0.42886493       2.15757207       0.00349670       0.00169693       0.00318817
C        1.31296295      -1.14885207       4.02625322       0.00267395       0.00082275       0.00853606
H        3.74074293      -0.20749144       4.14386926       0.00200546       0.00056564      -0.00041138
H        5.96347023       0.39718496       3.29842899       0.00143982       0.00298248       0.00174835
H        6.41161931       0.51840900       0.82159215      -0.00061706       0.00293106       0.00359954
H        4.58922631       0.03753226      -0.78514363       0.00071991       0.00097702       0.00704482
H        2.20066862      -0.33279467      -1.26242392      -0.00066849      -0.00102844       0.00524505
H       -0.60856262      -0.69748030      -1.34376382      -0.00066849      -0.00010284      -0.01131285
H       -3.27460950      -1.03116177      -0.62355777       0.00205688       0.00010284       0.00457656
H       -4.72693126      -1.55966146       1.33418766       0.00262253      -0.00164551       0.00339386
H       -3.79393652      -1.62819286       3.64938009      -0.00046280      -0.00370239       0.00215973
H       -1.37364020      -1.28684981       4.04938869      -0.00159408      -0.00190262      -0.00267395
H        0.63829407      -2.01224649       4.03804504       0.00200546      -0.00056564       0.00380523
H        2.25126921      -1.45329960       4.49725397       0.00113129       0.00534789       0.00462799
H        0.87044336      -0.29526610       4.56096106      -0.00262253       0.00365097      -0.00030853
