165
Properties=species:S:1:pos:R:3:forces:R:3 energy=-173259.49604174553 pbc="F F F"
H       17.45024727      -4.03728357       7.45121627       0.00030853       0.00308532      -0.00344528
O       16.61400971      -4.56397834       7.33742917       0.00287964      -0.00174835       0.00457656
P       15.16560598      -3.58482013       7.69821277       0.00473083      -0.00437088       0.00519363
O       15.35786535      -2.66621913       9.02556269       0.00061706       0.00390808      -0.00025711
O       13.91878449      -4.61640404       7.53596168       0.00545074      -0.00457656       0.00354812
O       15.17722508      -2.42453305       6.32636480       0.00318817      -0.00452514       0.00421661
C       15.76874783      -2.86230957       5.03027258       0.00318817      -0.00586212      -0.00791900
C       15.22432177      -1.97909058       3.90287961      -0.00452514       0.01882048      -0.00334243
O       13.83618117      -2.41458548       3.51242492      -0.00390808      -0.00797042       0.01239272
C       15.09513640      -0.48394738       4.26537342      -0.00467941       0.02972195      -0.01393538
O       15.30613918       0.26573305       2.98107488      -0.03460705       0.03836086       0.01105574
C       13.64461217      -0.35224134       4.77188595       0.00277679       0.00483367       0.00668487
C       12.85417448      -1.36502627       3.91019891       0.00457656       0.00041138       0.00221115
N       11.73347594      -2.01324784       4.60603875      -0.00149124       0.00550216      -0.00529647
C       11.78771206      -2.74368836       5.80837449       0.02478544       0.00293106       0.00221115
N       10.58420295      -3.22200198       6.17541468      -0.00138840       0.00755904       0.00339386
C        9.70198147      -2.78939472       5.16012442       0.00246826       0.00524505       0.00262253
C        8.29593190      -2.94325024       4.99378325      -0.00344528      -0.00015427       0.00858749
N        7.49174676      -3.60547999       5.86036534       0.01105574       0.00586212      -0.00107986
N        7.72967496      -2.35887469       3.87336056       0.00246826      -0.00020569       0.00215973
C        8.51678410      -1.68378956       2.97888656      -0.00272537       0.00210830      -0.00179977
N        9.86067113      -1.48685781       3.05366759       0.00349670      -0.00210830       0.00231399
C       10.40244584      -2.05496103       4.17262899       0.00452514       0.00143982      -0.00467941
H       16.86584668      -2.75550228       5.08440969       0.01013015      -0.00658202      -0.00087418
H       15.51697169      -3.91340385       4.82010378      -0.00452514      -0.01810057      -0.00745620
H       15.85784240      -2.11311797       3.01139749      -0.00478225       0.00257110       0.00442230
H       12.43523505      -0.90353654       3.00451518       0.00503936      -0.00359954      -0.00359954
H       13.61109637      -0.64470087       5.82940806      -0.00622207       0.00185119       0.00987304
H       13.26285879       0.66713094       4.66438589      -0.00066849      -0.00159408      -0.01038726
H       15.83408251      -0.15264764       5.00829619      -0.00334243       0.00282821      -0.00534789
H       12.72003088      -2.92736831       6.32985474      -0.00287964       0.00874175      -0.00601638
H        7.88823286      -4.02940624       6.69494590       0.00524505       0.00071991       0.00226257
H        6.47275462      -3.65526412       5.69741482      -0.00133697       0.00246826       0.00236542
H        7.98571718      -1.24859829       2.13387048       0.00226257       0.00329101       0.00488510
P       15.17017454       2.05668884       3.05865098       0.03743526      -0.01254698       0.00678771
O       15.97524133       2.61622523       1.76190747       0.00514221       0.01203276       0.00874175
O       15.45090576       2.56787854       4.57761807      -0.01748350       0.00107986       0.00128555
O       13.39663222       2.25578928       2.80253607       0.05846689      -0.02031172       0.04926234
C       12.91920624       2.80772343       1.50754389      -0.02216291       0.03964641      -0.00334243
C       12.46349001       4.26273819       1.65378230      -0.05939249       0.04699977       0.04309169
O       11.29585213       4.29711427       2.60549342       0.01424391       0.03517269      -0.06474038
C       13.51581693       5.25783270       2.23536782       0.01049010       0.03455563      -0.00051422
O       13.50766852       6.56091846       1.53881881      -0.01383254      -0.01383254      -0.04730830
C       13.13228000       5.37269032       3.73593978       0.02015745      -0.03974926      -0.03779522
C       11.59300208       5.26752863       3.70418405       0.01023299      -0.00025711       0.00910171
N       10.91466110       4.77997312       4.93062447      -0.02493970       0.06710580      -0.00858749
C        9.49093172       4.83079382       4.91345268      -0.04792537       0.01727781       0.02771649
O        8.83430092       5.32277056       3.94942410      -0.00755904      -0.03008191      -0.01753492
N        8.86621706       4.29056613       6.03708074      -0.00251968      -0.06535745       0.00935882
C        9.51545316       3.75741941       7.15994585       0.02524823       0.00313675       0.04679408
O        8.84601609       3.25109349       8.12818465      -0.02339704      -0.01774061       0.01311263
C       10.97049077       3.79102140       7.14798483       0.02159727       0.03265301       0.00951308
C       11.68895804       3.22936998       8.35141281       0.01177565      -0.01383254       0.02442548
C       11.60589626       4.26787243       6.03073100      -0.01990034       0.00437088      -0.03676678
H       13.71335348       2.74281053       0.74657792      -0.02139158      -0.04046917      -0.02087736
H       12.06131284       2.18347587       1.21727729       0.00483367      -0.01527235      -0.05738703
H       12.11198161       4.62489082       0.67112175       0.02560819       0.00107986       0.00699340
H       11.12273988       6.23184094       3.45511711       0.01594084      -0.00930739      -0.04895381
H       13.59032457       4.51634769       4.25045936      -0.03121319      -0.03224164       0.00539932
H       13.49571708       6.30762421       4.18879691      -0.05425028      -0.05198771      -0.04735972
H       14.53956102       4.88863441       2.09281141      -0.00113129      -0.00596496       0.03666393
H       12.68807877       4.24105824       5.94529492       0.00941024       0.03219021       0.05738703
H       11.28255691       3.67746843       9.27272552       0.02704801      -0.00678771       0.05733560
H       12.77291152       3.41433478       8.31943014       0.00653060       0.00329101      -0.08674903
H       11.51855493       2.14071692       8.42461544       0.01763777      -0.03496701       0.01964323
H        7.81195326       4.22007592       5.99937530      -0.00961593       0.00678771       0.00056564
H       12.61463181       6.98237951       1.63146430      -0.00107986      -0.00622207       0.01275267
H       -2.85383867       6.83292514       8.79328027       0.00401092       0.00401092       0.03388714
O       -2.42546625       6.04565357       9.22397770      -0.00812469      -0.02313993       0.01470671
P       -2.23818460       4.71320117       8.05988232      -0.00051422      -0.00709625       0.00287964
O       -3.65998646       4.29392580       7.38038103      -0.00447372       0.00539932      -0.00910171
O       -1.29410814       3.63064117       8.82317462      -0.00308532      -0.00627349       0.01126143
O       -1.21851410       5.56803641       6.86018349       0.00807326      -0.01105574       0.01434676
C       -1.69841120       5.69792902       5.45874126       0.01336974      -0.02427122       0.01810057
C       -1.14104115       4.59580506       4.54362704       0.00627349       0.00807326      -0.02149442
O        0.36380146       4.59046392       4.65219890       0.04602275       0.01013015      -0.02308851
C       -1.59445895       3.13874248       4.83919051      -0.00077133       0.01342116      -0.03198453
O       -1.80481739       2.47861436       3.49940900       0.01316405       0.01460387      -0.01110717
C       -0.45256735       2.56121039       5.69251690       0.00164551       0.01110717       0.00308532
C        0.81357149       3.27986808       5.18718734       0.04288600      -0.05846689       0.04514857
N        1.85984574       3.42813592       6.22141010      -0.02200864       0.03861797       0.00863891
C        1.80540831       2.95541461       7.55393102       0.00005142       0.01331832      -0.00663345
N        3.01374084       2.89617706       8.13280184      -0.00473083      -0.00905028       0.03774380
C        3.90704193       3.35594512       7.14412694      -0.00956450      -0.03064755       0.00653060
C        5.32835835       3.41218179       7.13968624      -0.00910171       0.00493652       0.02231718
N        6.07400646       2.93386207       8.16130840       0.01876905       0.06211786       0.00565643
N        5.94356457       3.94629006       6.01462026       0.02113447      -0.00791900       0.02236860
C        5.16071016       4.30211651       4.94419698      -0.00771331      -0.04165187       0.01450102
N        3.80504397       4.18029454       4.81798420      -0.01707213      -0.00005142       0.00678771
C        3.21952411       3.70101998       5.96188346      -0.03188168       0.00133697       0.00061706
H       -2.80127085       5.70294270       5.41609031       0.02015745      -0.02360273       0.00586212
H       -1.31871623       6.67363560       5.11732210       0.00365097      -0.03177884       0.02252287
H       -1.39443982       4.85000831       3.50227314       0.00226257       0.00421661      -0.03702389
H        1.28892421       2.73503999       4.36724858      -0.00025711       0.00740478      -0.04386302
H       -0.65939281       2.82442312       6.73829576      -0.03234448       0.03198453      -0.01861479
H       -0.38213975       1.47229825       5.61744687       0.01763777       0.01892332       0.03141888
H       -2.56138356       3.09671978       5.36133847       0.00251968       0.02396268       0.00550216
H        0.87550115       2.68437922       8.04101603       0.00503936       0.06350625      -0.02550535
H        5.60745406       2.54882589       8.97884770      -0.01907759      -0.02005461      -0.01038726
H        7.10677526       3.00069729       8.14958285       0.02051740       0.04376018      -0.02457975
H        5.70076413       4.71588291       4.09114041      -0.01444960      -0.02607099       0.01696928
P       -1.23179798       0.84591142       3.03368968      -0.01280409       0.00606780      -0.02026029
O       -1.92824984       0.57721156       1.59208161      -0.00966735      -0.01542662      -0.02319135
O       -1.24585896      -0.26260899       4.22925316      -0.03008191       0.01326689      -0.01208419
O        0.50862912       1.18378257       2.79958800       0.00987304       0.00992446      -0.00143982
C        0.92099876       2.24611321       1.84455175       0.00642776       0.01136428      -0.01028441
C        1.79733519       1.64321805       0.74895556       0.01280409       0.00699340       0.00159408
O        2.92425636       0.88555922       1.40979361       0.01434676       0.00750762      -0.00313675
C        1.10446423       0.62673046      -0.18807299       0.00776473       0.00961593       0.00431945
O        1.78208468       0.76777610      -1.49970113      -0.00591354      -0.00128555      -0.00174835
C        1.39942498      -0.74465450       0.45704421       0.00107986       0.00843322       0.00267395
C        2.83095322      -0.56074809       0.98922328       0.00534789       0.00226257      -0.00251968
N        3.24235329      -1.41085196       2.12096434      -0.00519363       0.00005142      -0.00041138
C        4.64457410      -1.54112934       2.32886881       0.00493652      -0.00555358      -0.00714767
O        5.49658250      -0.98570594       1.56964566      -0.00365097      -0.01085006      -0.00277679
N        5.00889819      -2.29772866       3.43207626      -0.00282821      -0.00663345      -0.00812469
C        4.14226634      -2.94851879       4.32441662       0.00380523      -0.00509078       0.00344528
O        4.61884447      -3.59430988       5.32651133      -0.00000000       0.00879317      -0.00143982
C        2.71697623      -2.80233795       4.05200594      -0.00503936       0.00565643      -0.01187850
C        1.71775458      -3.45485312       4.97948211       0.00123413      -0.00221115       0.00467941
C        2.33360400      -2.01629966       2.99411634       0.00766189      -0.00997588       0.01100432
H        0.04139960       2.74795639       1.41094784       0.01655791       0.01789488      -0.03100751
H        1.50549927       2.98329309       2.41638560      -0.01064437       0.01213561       0.00565643
H        2.24092286       2.45358622       0.14762797       0.01192992       0.00807326       0.00879317
H        3.57191194      -0.71004112       0.19456205       0.00277679      -0.00704482      -0.00154266
H        0.66827334      -0.90273038       1.25937664       0.00246826       0.01192992       0.00385666
H        1.33058141      -1.57733470      -0.25784086      -0.00133697       0.01316405      -0.00457656
H        0.02110870       0.81484537      -0.27722724       0.01085006       0.01583800       0.00483367
H        1.28490034      -1.80265036       2.81136439      -0.00689056      -0.00467941      -0.00154266
H        0.70084300      -3.07575186       4.79461209       0.00046280      -0.00272537       0.00066849
H        1.97928146      -3.25137182       6.03023403       0.00205688       0.00478225       0.00087418
H        1.71190398      -4.55208571       4.84834036       0.00339386      -0.00113129       0.00699340
H        6.06616021      -2.35099346       3.61901632       0.00010284      -0.00956450      -0.00766189
H        1.42658661       0.07703856      -2.11543660      -0.01408965      -0.00385666       0.00519363
C        9.47170287       0.54225836       6.24931940      -0.00354812      -0.00503936       0.00488510
C       10.59196098       1.04074568       5.59096420       0.00514221       0.00709625      -0.00344528
C       10.48815597       1.64904219       4.30711793      -0.00601638       0.00262253       0.00236542
C        9.24148499       1.78877056       3.71141981       0.00293106      -0.00545074      -0.00565643
C        8.05741805       1.29010581       4.34671130      -0.00205688       0.00370239       0.00611923
C        6.77619120       1.42799523       3.73912717      -0.00354812      -0.00982161      -0.00452514
C        5.66975787       0.95702952       4.42913518      -0.00025711      -0.02607099      -0.00606780
N        4.31383887       0.98714383       4.10645376      -0.00277679      -0.02216291      -0.00843322
C        3.57965486       0.41125288       5.15183384      -0.00545074      -0.01990034      -0.00272537
C        2.18961099       0.23223103       5.24059536      -0.00138840      -0.01707213      -0.00205688
C        1.68307498      -0.36291617       6.40491012      -0.00545074       0.00287964       0.00899886
C        2.54179778      -0.76869011       7.46518309      -0.00143982       0.00421661       0.00735336
C        3.93060452      -0.60581374       7.37270187      -0.00689056       0.00395950       0.00611923
C        4.47891294      -0.02197447       6.19576900      -0.00457656      -0.00503936       0.00401092
C        5.80337189       0.30917473       5.72183275      -0.00719909      -0.00591354      -0.00041138
N        7.04567768       0.11062767       6.26413103      -0.00010284       0.00642776       0.00735336
C        8.19179738       0.63336119       5.63643589      -0.00581069       0.00971877       0.00215973
C        7.16186444      -0.68313834       7.52806056      -0.00313675       0.00282821       0.00293106
H        9.58869851       0.12738715       7.24653206       0.00344528      -0.00437088      -0.00653060
H       11.55704664       0.98885065       6.09221081       0.00092560      -0.01239272      -0.01007873
H       11.37751836       2.04166878       3.81837651       0.00020569       0.01110717       0.00658202
H        9.14258311       2.30612928       2.75565978       0.00262253      -0.01352400      -0.00802184
H        6.67897398       1.91124716       2.76655089      -0.00221115      -0.02823071      -0.01069579
H        3.91237486       1.26516509       3.20360640       0.00015427      -0.02519681      -0.00771331
H        1.54538562       0.52497049       4.41340949      -0.00272537      -0.02848783      -0.00416519
H        0.60730295      -0.52963427       6.48416739      -0.00128555      -0.00467941       0.00694198
H        2.11222015      -1.21489761       8.36374050       0.00041138      -0.00041138       0.00683913
H        4.56225374      -0.91277289       8.20349286      -0.00370239       0.00642776       0.00833037
H        6.41644468      -1.48274177       7.49852918      -0.00107986       0.00030853       0.00262253
H        8.14404679      -1.15891269       7.57926468       0.00262253       0.00951308       0.01059295
H        7.00381717      -0.02435786       8.39423401      -0.01028441       0.00431945      -0.00041138
