163
Properties=species:S:1:pos:R:3:forces:R:3 energy=-174134.16908129217 pbc="F F F"
P       -7.96270667      25.76843894       5.60241322      -0.00694198      -0.00437088       0.00123413
O       -8.72934529      24.87090818       6.71806437       0.00380523      -0.00272537       0.00642776
O       -8.69070460      26.34339099       4.26912470       0.00982161      -0.00030853      -0.00385666
O       -7.23343785      27.24127129       6.33055524      -0.01655791      -0.00246826      -0.01645506
C       -6.19829337      27.05645142       7.38536201       0.00102844       0.00221115      -0.00185119
C       -5.19747943      28.21388854       7.32311644       0.00514221       0.01645506      -0.00730193
O       -4.35066716      28.07843566       6.08850172      -0.00406234       0.00992446      -0.01347258
C       -5.81090134      29.63454043       7.25205624      -0.00483367       0.01696928      -0.00606780
O       -4.84380201      30.51533475       7.98584452       0.00452514      -0.00102844       0.00750762
C       -5.85214608      29.95425002       5.74431395       0.00303390       0.00030853      -0.00709625
C       -4.59363964      29.24780456       5.19200465       0.00221115      -0.00113129       0.00205688
N       -0.19250306      31.95650051      -3.30008462       0.00056564      -0.00411377       0.00622207
C       -0.78242685      31.36623756      -4.44184459       0.00421661       0.00190262       0.00380523
N       -1.72197104      30.46490886      -4.12290130       0.00745620       0.00138840      -0.00524505
C       -1.75798455      30.46296777      -2.70687991      -0.00488510      -0.00164551      -0.00185119
C       -2.60388575      29.75795749      -1.79288470       0.00082275      -0.00277679       0.00709625
O       -3.56492232      28.95613472      -2.09180983       0.00941024       0.00169693      -0.01146712
N       -2.30373906      30.04262580      -0.43301057       0.00807326      -0.00251968       0.00488510
C       -1.30292134      30.92581751      -0.00985253       0.00215973       0.00473083      -0.00339386
N       -1.10977143      31.07216189       1.32179133       0.00030853      -0.00838180      -0.00025711
N       -0.53776376      31.64330864      -0.88156112      -0.00035995       0.00565643       0.00241684
C       -0.81219657      31.37566942      -2.18715500      -0.00858749      -0.00385666       0.00791900
P       -5.13019998      32.28710805       7.97115926      -0.00683913      -0.00154266       0.00694198
O       -4.31736674      32.86074451       9.25709113       0.01300978      -0.00000000      -0.00431945
O       -6.69932325      32.61695428       7.68248611      -0.00905028      -0.00246826      -0.00298248
O       -4.28893538      32.72822266       6.44010738       0.00293106       0.00426803      -0.00678771
C       -2.94101447      33.35767574       6.51023147       0.00560501       0.00925597      -0.00087418
C       -3.00738583      34.87152336       6.27633150      -0.00035995       0.00390808       0.00411377
O       -3.56723649      35.13557635       4.90674400       0.01624937      -0.01671217      -0.01028441
C       -3.89944033      35.67859213       7.24824298       0.00303390       0.00519363       0.00545074
O       -3.26554883      37.02016234       7.35621780      -0.00406234      -0.01234130       0.01007873
C       -5.26494177      35.76229460       6.52491483       0.00082275      -0.00359954       0.00761047
C       -4.86202281      35.88360000       5.04213051      -0.01537520       0.00097702      -0.00272537
N       -5.82473263      35.34813983       4.07927570      -0.00395950      -0.00478225      -0.00056564
C       -6.88498101      34.42574870       4.26017073       0.00462799      -0.01002730       0.00015427
N       -7.48057143      34.10117777       3.10401175      -0.00442230       0.00519363       0.00406234
C       -6.77688373      34.82222708       2.11061076      -0.00149124      -0.00000000      -0.00236542
C       -6.87031272      34.78593269       0.68244480       0.00035995       0.00663345      -0.00534789
O       -7.68448050      34.08353484      -0.02646400      -0.00000000       0.00303390       0.00107986
N       -5.90278798      35.61012906       0.04819325       0.00735336      -0.00169693      -0.00128555
C       -4.93059201      36.35630380       0.72241116      -0.00246826       0.00730193       0.00683913
N       -4.05333994      37.07419244      -0.02282928      -0.00627349       0.00200546      -0.00087418
N       -4.81916387      36.36705391       2.07924023      -0.00015427       0.00658202       0.00750762
C       -5.74896340      35.59085707       2.70222402       0.00149124      -0.00524505      -0.00349670
H       -0.50270243      31.66253541      -5.44514252      -0.00318817       0.00164551      -0.01311263
H       -2.89290365      29.54380617       0.29387475       0.00066849       0.00262253      -0.00128555
H       -1.68604612      30.57601806       2.02866428       0.00365097       0.01069579      -0.00267395
H       -0.41640987      31.74916450       1.63039367      -0.00730193      -0.00041138      -0.00946166
H       -3.71461264      29.90096860       5.21049115       0.00164551      -0.00653060       0.00164551
H       -5.83898122      31.03051468       5.53611027       0.01192992      -0.00416519       0.00812469
H       -6.76891126      29.52313644       5.32072156      -0.00416519       0.00401092       0.00329101
H       -6.79967178      29.69957159       7.72840272      -0.00534789       0.00498794       0.00503936
H       -4.52484427      28.13948979       8.19346006       0.00354812      -0.00010284      -0.00025711
H       -6.68437597      27.03544848       8.37570299      -0.00740478       0.00046280       0.00437088
H       -7.15792551      34.03678979       5.23327533       0.00879317      -0.00997588       0.01054152
H       -5.89907292      35.61403650      -1.01165367      -0.00812469      -0.00365097      -0.00226257
H       -4.10613824      37.12872662      -1.05900130       0.00961593       0.00030853       0.00519363
H       -3.33558666      37.59882731       0.47080557      -0.00344528      -0.00313675       0.00123413
H       -4.66001916      36.92610444       4.75560168      -0.00000000      -0.00138840      -0.00941024
H       -5.86411287      36.62023097       6.86370013       0.00323959      -0.00293106       0.00390808
H       -5.82467340      34.83703547       6.71904250      -0.00488510       0.00015427      -0.00797042
H       -3.97606859      35.20425987       8.24007096       0.00802184      -0.01100432      -0.00365097
H       -3.81255942      37.57233119       7.97171627      -0.00282821      -0.00123413      -0.00735336
H       -1.97958430      35.27407446       6.29898626      -0.00241684      -0.01182708      -0.00005142
H       -2.35476905      32.89027871       5.70479366      -0.00555358      -0.00704482      -0.00370239
H       -2.46273562      33.14826595       7.48071046       0.00349670       0.00118271      -0.00226257
O       -5.71693418      36.22719455      -8.75816085       0.00349670      -0.00560501       0.00467941
C       -5.05210200      37.51928922      -9.08663838       0.00416519       0.00920455       0.00143982
C       -4.18555752      37.96457699      -7.91703490      -0.00488510       0.00133697       0.01907759
O       -5.05558422      38.29496522      -6.72913322      -0.00467941      -0.00699340       0.01316405
C       -3.16155809      36.94371249      -7.37419500       0.00236542      -0.00339386       0.01470671
O       -1.93054265      37.07539929      -8.18411282       0.00323959       0.00030853       0.00143982
C       -2.97338494      37.38068238      -5.90051060      -0.00627349       0.00606780       0.00925597
C       -4.38431380      37.85392708      -5.49023750      -0.00015427      -0.00473083      -0.00123413
N       -5.20325041      36.75753482      -4.85196529       0.00647918       0.00149124      -0.00555358
C       -5.08732692      36.58488314      -3.44142298      -0.01146712       0.00251968      -0.01182708
O       -4.20636800      37.28438504      -2.81218787      -0.00771331      -0.00740478      -0.00437088
N       -5.91348459      35.68395771      -2.81402648       0.00097702       0.00154266      -0.00293106
C       -6.78670288      34.91153655      -3.54351587      -0.00154266       0.00401092      -0.00025711
N       -7.59286289      34.06631190      -2.86133767      -0.00020569       0.00951308       0.00154266
C       -6.82790840      35.00218860      -4.98000281      -0.00457656       0.00745620      -0.00277679
C       -6.03685910      35.94189479      -5.59537848      -0.00159408       0.00771331       0.00154266
P       -0.85797025      35.64828584      -8.28867944       0.01403822      -0.01295836       0.01131285
O        0.43050159      36.13316077      -9.14729695      -0.00365097      -0.00899886       0.00113129
O       -1.70418615      34.30960106      -8.67114231      -0.00097702       0.00689056      -0.00169693
O       -0.42765441      35.62006102      -6.53192605      -0.01506667       0.00323959      -0.02026029
C        0.79428499      34.82382869      -6.22955394      -0.00833037       0.00581069       0.00179977
C        1.10864486      34.98635255      -4.74326092       0.00426803       0.00606780      -0.00005142
O        0.07718189      34.27354301      -3.89734224       0.00128555      -0.00524505       0.00771331
C        2.45824092      34.33428512      -4.35860185       0.00138840       0.00401092       0.00750762
O        2.93449016      35.05630359      -3.15634376      -0.00375381      -0.00035995      -0.00159408
C        2.05716458      32.88279915      -4.01359714       0.00539932       0.00200546      -0.00473083
C        0.73448383      33.07724778      -3.24791285      -0.00329101       0.00560501      -0.00082275
N       -4.72679936      28.76004105       3.80070329       0.00545074       0.00210830       0.00704482
C       -3.71969457      29.08421821       2.83252653      -0.00565643      -0.00308532       0.00231399
O       -2.67067227      29.72004340       3.21067184      -0.00195404      -0.00550216      -0.00257110
N       -3.93230397      28.72610834       1.52197872       0.00365097       0.00077133      -0.00097702
C       -5.05743945      28.02891156       1.15321166      -0.00318817       0.00555358      -0.00190262
N       -5.23888679      27.77550510      -0.16150544      -0.00385666       0.00030853      -0.00005142
C       -6.01273345      27.58794577       2.14241934       0.00215973       0.00401092       0.00663345
C       -5.81693838      27.97905127       3.44030270       0.00977019      -0.00406234       0.01007873
H       -6.03229712      36.09606774      -6.67297006      -0.00797042      -0.00097702       0.00704482
H       -7.47366190      34.35560114      -5.56952207      -0.00318817      -0.00478225       0.00210830
H       -7.59499286      34.05048268      -1.82279217      -0.00066849      -0.00498794       0.00143982
H       -8.24229347      33.46493219      -3.36267913       0.00030853       0.00766189      -0.00272537
H       -4.37631768      38.68286263      -4.77277436      -0.00262253      -0.00982161      -0.01100432
H       -2.27258982      38.23091332      -5.87675732       0.00046280      -0.00699340       0.00431945
H       -2.59500996      36.58690439      -5.24746476       0.00298248       0.00611923      -0.00971877
H       -3.55343981      35.91898715      -7.45221185      -0.00251968      -0.00637634       0.01249556
H       -3.64936481      38.88520263      -8.21276480       0.00380523      -0.00894744       0.00061706
H       -5.80933778      38.28487451      -9.31327339      -0.01218703       0.00020569      -0.00683913
H       -4.40186909      37.37933097      -9.96786101       0.00617065      -0.00303390      -0.00514221
H       -6.49728583      27.70495222       4.24098174      -0.00370239       0.00483367      -0.00375381
H       -6.87754233      26.98448535       1.87197071      -0.00169693       0.00323959       0.00200546
H       -4.58521861      28.15799485      -0.87274284       0.00133697       0.00843322       0.00591354
H       -6.06834173      27.27780729      -0.47579824      -0.00514221      -0.00853606      -0.00534789
H        0.90239200      33.31077034      -2.18775212      -0.00164551       0.00097702      -0.00293106
H        2.81417787      32.36406612      -3.40799507       0.00380523       0.00714767       0.00668487
H        1.88840308      32.30399313      -4.93629273       0.00658202      -0.00298248      -0.00714767
H        3.20471350      34.39409407      -5.16872440      -0.00791900      -0.00190262       0.00730193
H        1.08131462      36.04803649      -4.45841600       0.00596496       0.00354812       0.00509078
H        1.63416861      35.21197146      -6.83183185      -0.00092560      -0.01213561       0.00344528
H        0.62173983      33.76246222      -6.47790743       0.01321547       0.00303390       0.00282821
O       -6.45867275      24.93695053       5.10262329      -0.00041138       0.00848464       0.01141570
H       -6.39558594      24.05290173       5.55330331      -0.00822753       0.00694198       0.00025711
O       -8.05990839      35.14351870      -8.02163052       0.00750762       0.00246826       0.00498794
P       -7.36173729      35.94869986      -9.45191663       0.00714767      -0.00215973      -0.00642776
O       -8.08994545      37.38056483      -9.71877791      -0.00406234      -0.00210830       0.00514221
O       -7.26556920      34.79728739     -10.59125068       0.00858749      -0.01002730      -0.00447372
H        3.73845745      34.59084252      -2.81019421      -0.00565643       0.00164551       0.00066849
H       -8.42989042      35.81146034      -7.38523489      -0.00416519      -0.00190262       0.00257110
H       -5.65741803      26.11120741       7.22007253       0.00560501      -0.01028441       0.01300978
C       -5.71694618      31.49819290       1.12219490       0.00318817       0.00092560      -0.00334243
C       -5.45457449      31.68098215       2.47779259      -0.00323959      -0.00313675       0.00107986
C       -4.39725610      32.52241261       2.92338807      -0.00236542       0.00041138      -0.00385666
C       -3.61107089      33.18538583       1.98862483      -0.00066849      -0.00452514       0.00077133
C       -3.85035729      33.03947021       0.58264116       0.00678771      -0.00138840      -0.00370239
C       -3.05427034      33.72418771      -0.38045875       0.00596496       0.00354812      -0.00149124
C       -3.33850628      33.53353118      -1.72372530       0.00473083       0.00138840      -0.00694198
N       -2.70052269      34.03611015      -2.85676119       0.00133697       0.00406234      -0.00395950
C       -3.31130583      33.51401208      -4.00299703      -0.00025711       0.00596496      -0.00570785
C       -2.95583250      33.73163423      -5.34715389      -0.00514221       0.00025711      -0.00339386
C       -3.71242029      33.07792093      -6.33274196      -0.00133697      -0.00056564      -0.00190262
C       -4.77813494      32.20197181      -5.98170067      -0.00452514       0.00030853      -0.00272537
C       -5.12102079      31.97037729      -4.64212111      -0.00020569       0.00318817       0.00056564
C       -4.39862337      32.64237633      -3.61631007       0.00200546       0.00606780      -0.00169693
C       -4.41869234      32.66707015      -2.16557959       0.00210830       0.00277679      -0.00066849
N       -5.21246082      32.05207873      -1.22851918       0.00385666       0.00041138      -0.00303390
C       -4.93636790      32.18163671       0.14919985       0.00097702       0.00143982       0.00015427
C       -6.38771424      31.22661667      -1.65035610      -0.00087418      -0.00092560       0.00020569
H       -6.51497848      30.82295652       0.82707835       0.00365097      -0.00215973      -0.00025711
H       -6.08269089      31.16949325       3.20507843      -0.00298248       0.00102844       0.00149124
H       -4.23999644      32.67422160       3.99084531      -0.00452514      -0.00149124      -0.00066849
H       -2.81613957      33.85876536       2.31106133       0.00416519      -0.00673629       0.00015427
H       -2.24369559      34.37587202      -0.05561086      -0.00046280       0.00956450      -0.00503936
H       -1.79790291      34.51648289      -2.87816937       0.00169693       0.00046280      -0.00642776
H       -2.10665574      34.36175036      -5.60876890      -0.00539932       0.00318817      -0.00313675
H       -3.44942151      33.24021361      -7.37972826       0.00575927      -0.00478225      -0.00169693
H       -5.33671267      31.69328331      -6.76999322       0.00035995      -0.00365097      -0.00488510
H       -5.92073407      31.26847095      -4.41453254       0.00447372       0.00267395       0.01007873
H       -7.23577102      31.45846745      -0.99676845      -0.00349670       0.00174835      -0.00493652
H       -6.67296224      31.50119248      -2.66492232      -0.00020569       0.00308532       0.00087418
H       -6.12331065      30.16162765      -1.59193701      -0.00894744      -0.00354812      -0.00179977
