163
Properties=species:S:1:pos:R:3:forces:R:3 energy=-174134.03709918365 pbc="F F F"
O        9.00614760      10.46712515      19.74845872       0.00010284       0.00041138      -0.00164551
P        7.86295794      11.74259696      20.16724646       0.00015427       0.00241684       0.00149124
O        6.42628489      11.03558733      20.44674428       0.00020569       0.00030853       0.00437088
O        7.96655399      13.01413463      19.14581739       0.00380523       0.00262253       0.00092560
O        8.54827627      12.36848565      21.72267717      -0.00061706      -0.00334243       0.00174835
C        9.45627570      11.50433652      22.52187981       0.00149124      -0.00344528       0.00406234
C       10.92490993      11.83635586      22.23786126      -0.00077133       0.00431945       0.00128555
O       11.30945790      11.31974423      20.85921246       0.00807326      -0.00375381       0.00200546
C       11.24360397      13.35899754      22.21554903       0.00385666       0.00190262       0.00293106
O       12.54117879      13.48876756      22.95008927      -0.00133697      -0.00293106       0.00190262
C       11.37842423      13.70584511      20.71560935      -0.00380523       0.00287964       0.00390808
C       12.04065221      12.44694550      20.14053012       0.00349670       0.00205688       0.00231399
N       11.95425047      12.23936044      18.71085893       0.00236542      -0.00128555       0.00041138
C       10.87203661      12.49854705      17.82527494      -0.00097702      -0.00365097       0.00056564
N       11.20933740      12.27864765      16.54773236       0.00051422       0.00221115      -0.00097702
C       12.56209590      11.86061087      16.58251884       0.00154266       0.00118271      -0.00164551
C       13.48385475      11.61055819      15.51751608       0.00061706      -0.00467941       0.00102844
O       13.23662045      11.64944979      14.25357261       0.00226257      -0.00010284       0.00005142
N       14.79675088      11.33552603      15.98450394       0.00251968      -0.00226257       0.00000000
C       15.17278716      11.32652020      17.33220698       0.00190262      -0.00005142       0.00066849
N       16.48021611      11.11128275      17.62219394       0.00133697      -0.00051422      -0.00082275
N       14.29014730      11.54402809      18.34551105       0.00313675      -0.00041138       0.00020569
C       13.03220216      11.82669114      17.91221593       0.00426803       0.00545074      -0.00133697
H        9.24130224      11.73169294      23.57790860      -0.00149124       0.00195404       0.00431945
H        9.26000332      10.43561693      22.33925797      -0.00467941      -0.00503936       0.00349670
H       11.56971120      11.32567131      22.97136189      -0.00683913       0.00354812       0.00159408
H       13.10258637      12.38393178      20.41727632       0.00442230      -0.00303390       0.00483367
H       10.37441776      13.83773237      20.28495206      -0.00221115       0.00745620      -0.00421661
H       11.97476262      14.60866272      20.54522844      -0.00210830       0.00087418       0.00246826
H       10.47421709      13.96138096      22.71816659       0.00082275      -0.00164551      -0.00375381
H        9.89394692      12.80628337      18.19273743      -0.00241684      -0.00025711      -0.00385666
H       15.53691881      11.17107040      15.24684621       0.00282821       0.00231399       0.00041138
H       16.75627389      11.14872514      18.60024899       0.00483367       0.00143982      -0.00046280
H       17.21001076      11.04013230      16.88773977       0.00118271       0.00030853       0.00529647
P       13.25513719      15.12743208      23.14709597      -0.00210830       0.00005142      -0.00041138
O       14.11565367      15.05394628      24.52535346      -0.00015427       0.00812469      -0.00118271
O       12.17529883      16.29444830      22.81480654       0.00241684       0.00503936       0.00092560
O       14.36992658      15.12340981      21.74144193       0.00442230       0.00149124      -0.00123413
C       15.58043788      14.25222137      21.83351566       0.00323959       0.00097702      -0.00082275
C       16.85281490      15.10236907      21.82125305       0.00061706       0.00097702      -0.00308532
O       17.00237340      15.79473340      20.49608692       0.00452514      -0.00267395      -0.00632491
C       16.92320220      16.23883901      22.87721535      -0.00087418      -0.00020569       0.00097702
O       18.30884501      16.45149098      23.35444477       0.00035995      -0.00205688       0.00020569
C       16.35496543      17.47762584      22.13654732       0.00107986       0.00272537       0.00200546
C       16.77092116      17.27046349      20.66279439       0.00025711      -0.00406234      -0.00246826
N       15.79648627      17.73169603      19.66510413       0.00133697      -0.00246826      -0.00231399
C       14.42134776      18.04882605      19.79622177       0.00179977      -0.00318817      -0.00025711
N       13.84365133      18.30970615      18.61539674      -0.00488510       0.00143982       0.00426803
C       14.86823927      18.13415797      17.65381089      -0.00380523       0.00087418       0.00195404
C       14.81080458      18.09319690      16.22242328       0.00385666      -0.00113129       0.00899886
O       13.77999140      18.29385124      15.47667520       0.00560501       0.00154266       0.00087418
N       16.05647019      17.74435858      15.63407555       0.00097702       0.00077133      -0.00349670
C       17.22344590      17.46289457      16.35345655      -0.00267395      -0.00092560       0.00066849
N       18.33952697      17.14940754      15.64819044      -0.00077133       0.00005142      -0.00107986
N       17.27197773      17.47631729      17.71301207      -0.00164551      -0.00416519      -0.00385666
C       16.07882358      17.78352245      18.29381350      -0.00005142       0.00092560      -0.00226257
H       15.55165987      13.64263375      22.75178005      -0.00087418       0.00164551      -0.00113129
H       15.55967803      13.58877799      20.95493957      -0.00154266      -0.00251968       0.00303390
H       17.72292429      14.43253544      21.92752362      -0.00390808      -0.00113129      -0.00035995
H       17.72639063      17.75617677      20.41690260      -0.00365097       0.00205688      -0.00041138
H       15.26350656      17.47620178      22.24433484      -0.00071991      -0.00786758      -0.00257110
H       16.75579314      18.41250860      22.55148586       0.00339386       0.00519363       0.00509078
H       16.34531391      15.99612953      23.77826426      -0.00329101      -0.00231399       0.00185119
H       13.91458031      18.05498843      20.75316586      -0.00092560       0.00210830      -0.00606780
H       16.06755156      17.64037212      14.58221280      -0.00005142       0.00015427      -0.00293106
H       19.17472581      16.90601181      16.17407826       0.00149124      -0.00133697      -0.00077133
H       18.33143638      17.03587597      14.61697635      -0.00257110      -0.00107986       0.00694198
O       18.61822313      20.18852381       7.81922794       0.00205688      -0.00102844      -0.00318817
P       18.31951931      18.93743577       6.58069203      -0.00082275       0.00385666       0.00190262
O       18.35421530      19.57569953       5.08513627      -0.00246826      -0.00035995       0.00200546
O       17.00585569      18.12872942       7.10433430      -0.00041138       0.00231399      -0.00411377
O       19.76486364      17.87694064       6.68092301      -0.00082275       0.00179977      -0.00385666
C       20.79332252      18.00958195       7.75011252      -0.00277679       0.00010284       0.00138840
C       20.55981408      17.04360379       8.91565802       0.00169693      -0.00699340      -0.00349670
O       19.50121520      17.61320532       9.82575494      -0.00159408       0.00097702       0.00586212
C       20.05260673      15.62678524       8.49079238       0.00416519      -0.00781615       0.00246826
O       20.87041064      14.61478768       9.25841489      -0.00149124       0.00812469      -0.00519363
C       18.55272254      15.66609677       8.85697618       0.00555358      -0.00010284      -0.00041138
C       18.59525983      16.46109267      10.17364810       0.00277679       0.00529647       0.00056564
N       17.34210728      16.96889828      10.73916243      -0.00380523       0.00169693       0.00025711
C       17.27067199      17.08355258      12.17419305      -0.00000000      -0.00210830       0.00190262
O       18.32044720      16.82488496      12.86559258       0.00323959       0.00020569      -0.00056564
N       16.08188550      17.44598306      12.75606797       0.00000000      -0.00025711      -0.00118271
C       14.98238194      17.73247673      11.98508603      -0.00529647      -0.00164551       0.00077133
N       13.83982913      18.05882791      12.63044229       0.00365097      -0.00066849       0.00298248
C       15.06207317      17.69748778      10.54393081       0.00035995      -0.00128555       0.00149124
C       16.24903211      17.32979925       9.95952129      -0.00550216       0.00833037       0.00035995
H       21.74539921      17.75564563       7.25644551      -0.00442230       0.00020569      -0.00123413
H       20.84356063      19.04207467       8.12682200      -0.00005142       0.00473083      -0.00298248
H       21.49618880      16.93999582       9.49086524      -0.00046280      -0.00107986       0.00010284
H       19.06263645      15.86742829      10.96768600       0.00293106      -0.00005142      -0.00354812
H       18.03053335      16.23654931       8.07454345      -0.00272537      -0.00226257       0.00493652
H       18.10433221      14.67267930       8.93984429      -0.00118271       0.00395950      -0.00298248
H       20.22047789      15.42334074       7.42478231      -0.00251968       0.00215973       0.00205688
H       16.40473297      17.35021574       8.87960965       0.00010284      -0.00575927      -0.00457656
H       14.20188180      17.96841732       9.93386127       0.00169693       0.00550216       0.00138840
H       13.81575153      18.11929884      13.66786683      -0.00169693      -0.00200546      -0.00102844
H       12.99288991      18.26665846      12.10636830      -0.00056564       0.00030853      -0.00133697
P       20.11146496      13.23901736      10.12684156       0.00082275      -0.00133697      -0.00020569
O       21.60828921      12.29086551      10.30574969       0.00231399       0.00056564       0.00344528
O       19.17448735      12.35299092       9.13804589      -0.00174835       0.00200546      -0.00293106
O       19.55600547      13.76999809      11.56139120       0.00236542       0.00262253       0.00010284
C       22.55613246      12.59578068      11.41902804       0.00041138      -0.00123413       0.00334243
C       22.43701221      11.58941158      12.56652683      -0.00164551      -0.00046280       0.00056564
O       21.22372326      11.91006650      13.38298873       0.00236542      -0.00174835       0.00210830
C       22.27861914      10.10037722      12.15378678      -0.00133697       0.00113129      -0.00051422
O       23.57360623       9.40675454      12.06268835       0.00035995      -0.00462799      -0.00061706
C       21.44652653       9.48737120      13.30359118      -0.00159408       0.00107986       0.00329101
C       20.58607941      10.65278059      13.85925021      -0.00426803      -0.00575927       0.00035995
N       19.15842880      10.64960448      13.42199399       0.00061706       0.00010284       0.00118271
C       18.12622222      10.85137688      14.40130487      -0.00041138      -0.00046280      -0.00329101
O       18.45378550      11.00652536      15.63466862      -0.00678771      -0.00102844      -0.00380523
N       16.81474345      10.87201362      13.98701584       0.00030853      -0.00107986       0.00154266
C       16.48901604      10.75039944      12.65805698      -0.00061706       0.00272537       0.00077133
N       15.18272327      10.82016179      12.32009565       0.00123413       0.00051422       0.00570785
C       17.51905872      10.59742678      11.65943337       0.00303390       0.00354812      -0.00097702
C       18.82437328      10.57422015      12.07736131      -0.00503936      -0.00128555       0.00257110
H       23.56157769      12.51643248      10.97535222      -0.00375381       0.00035995      -0.00226257
H       22.40507911      13.61976367      11.79458188       0.00046280      -0.00133697      -0.00205688
H       23.32903266      11.67995055      13.21505249      -0.00071991      -0.00164551      -0.00431945
H       20.54811400      10.67147498      14.95297444       0.00509078      -0.00020569      -0.00205688
H       20.83779080       8.62816693      12.98896594       0.00092560       0.00354812      -0.00128555
H       22.14531726       9.15354746      14.08780318       0.00020569      -0.00426803       0.00056564
H       21.75540164      10.03557125      11.18672506       0.00190262      -0.00025711      -0.00385666
H       19.64809479      10.51759470      11.37230415      -0.00334243      -0.00154266       0.00524505
H       17.27590992      10.57344621      10.59995253      -0.00056564      -0.00056564      -0.00647918
H       14.46387930      11.07378759      13.02436165      -0.00282821      -0.00118271       0.00174835
H       14.91366460      10.80422476      11.33847993      -0.00025711       0.00041138       0.00375381
C       13.56872198      14.27910535      10.74614190       0.00128555       0.00082275      -0.00000000
C       14.15604919      13.89984844       9.53811292      -0.00092560      -0.00056564      -0.00097702
C       15.53596559      13.55167165       9.46998806       0.00092560       0.00025711       0.00107986
C       16.31517016      13.60193413      10.61849282      -0.00251968       0.00061706      -0.00262253
C       15.75640197      13.98834098      11.87662360       0.00087418       0.00020569      -0.00035995
C       16.56733566      13.98569135      13.04889407      -0.00339386       0.00133697       0.00118271
C       15.95018230      14.26310471      14.25530623       0.00344528      -0.00102844      -0.00282821
N       16.45248996      14.25381282      15.55340215      -0.00586212       0.00071991      -0.00087418
C       15.42680541      14.56627104      16.45549285       0.00061706       0.00005142       0.00303390
C       15.48044980      14.64911714      17.85575873      -0.00308532      -0.00267395      -0.00246826
C       14.29310083      14.96764482      18.53261483      -0.00056564      -0.00071991      -0.00005142
C       13.07912583      15.19743404      17.83142440      -0.00174835       0.00174835      -0.00102844
C       13.01937934      15.12210264      16.43715329      -0.00092560      -0.00226257       0.00190262
C       14.20437133      14.80469756      15.71831319      -0.00128555      -0.00097702      -0.00128555
C       14.54393897      14.60760783      14.32884211      -0.00221115      -0.00092560      -0.00020569
N       13.78652047      14.66876830      13.18783938      -0.00118271      -0.00056564      -0.00061706
C       14.34619801      14.32568478      11.94027807      -0.00210830       0.00205688      -0.00077133
C       12.34544382      15.04272717      13.33811566      -0.00025711       0.00056564      -0.00107986
H       12.50981568      14.52611826      10.75591038       0.00113129      -0.00066849      -0.00066849
H       13.54074539      13.86494010       8.63703374       0.00056564      -0.00020569      -0.00005142
H       15.98024813      13.24401400       8.52166576      -0.00020569      -0.00041138      -0.00000000
H       17.36679528      13.32938803      10.59774021       0.00035995      -0.00046280      -0.00066849
H       17.62855222      13.75097407      12.96791158       0.00287964      -0.00041138       0.00025711
H       17.39846342      13.98787057      15.81072646       0.00411377       0.00077133      -0.00000000
H       16.41226806      14.50892743      18.39916117       0.00107986      -0.00056564      -0.00030853
H       14.30480828      15.06936596      19.61604860      -0.00159408      -0.00169693      -0.00236542
H       12.17777934      15.45090607      18.38892917      -0.00154266       0.00190262       0.00077133
H       12.07118480      15.28349899      15.93397072       0.00020569      -0.00318817      -0.00010284
H       11.82388532      14.22223235      13.85323410      -0.00030853       0.00071991      -0.00267395
H       12.29158972      15.97117063      13.91927580      -0.00102844       0.00035995      -0.00210830
H       11.88718332      15.22311569      12.36576954       0.00118271       0.00035995      -0.00102844
H        9.95284573      10.71917427      20.03477298       0.00030853      -0.00102844       0.00010284
H       23.99584504       9.64129712      11.19691966       0.00092560      -0.00030853      -0.00030853
H       19.28478495      20.85471072       7.49922787       0.00123413      -0.00344528      -0.00570785
H       18.88710491      16.66866718      22.57713080       0.00359954      -0.00107986       0.00221115
