165
Properties=species:S:1:pos:R:3:forces:R:3 energy=-173260.20433564566 pbc="F F F"
P       -8.58003493      26.17197857       5.96467343       0.00179977      -0.00159408      -0.00143982
O       -9.24131034      25.48597934       7.28270487      -0.00462799      -0.00087418      -0.00755904
O       -9.46749908      26.82441435       4.77185388       0.00529647      -0.00092560       0.00051422
O       -7.43654580      27.48125461       6.40857371      -0.00370239       0.00401092      -0.00755904
C       -6.39081918      27.13627437       7.41351387      -0.00308532      -0.00231399      -0.00509078
C       -5.23373572      28.12716194       7.28396979      -0.00107986      -0.00329101      -0.00077133
O       -4.48387102      27.85692928       6.00660078      -0.00035995      -0.00421661      -0.00334243
C       -5.64708858      29.61696956       7.21757002      -0.00380523      -0.00169693      -0.00205688
O       -4.52895727      30.36829613       7.87971099      -0.00143982      -0.00339386      -0.00246826
C       -5.71575129      29.91810292       5.70786816       0.00128555       0.00123413      -0.00236542
C       -4.57167027      29.05783398       5.12688324       0.00061706      -0.00123413      -0.00128555
P       -4.66796049      32.15640490       7.90833135       0.00010284      -0.00313675       0.00277679
O       -3.70710725      32.65665674       9.11960469       0.00210830      -0.00159408       0.00077133
O       -6.23110966      32.58746204       7.75077597       0.00190262      -0.00030853      -0.00226257
O       -3.92030379      32.54969534       6.31669391      -0.00529647      -0.00174835       0.00329101
C       -2.56703056      33.16737839       6.27978827      -0.00509078      -0.00555358       0.00102844
C       -2.63689249      34.68422160       6.07023018       0.00236542      -0.00509078       0.00426803
O       -3.31957844      34.97083816       4.76010739       0.00442230      -0.00226257       0.00606780
C       -3.42238510      35.49104680       7.13090600       0.00694198       0.00000000      -0.00200546
O       -2.74555447      36.81208404       7.21129779       0.00406234       0.00318817      -0.00380523
C       -4.84332879      35.62324833       6.53182810       0.00303390      -0.00221115       0.00267395
C       -4.57182725      35.75023311       5.02107838       0.00251968       0.00107986      -0.00000000
H       -3.61232392      29.58807596       5.14084251      -0.00406234       0.00786758       0.00061706
H       -5.58600445      30.98194618       5.48271799       0.00653060       0.00334243       0.00380523
H       -6.69072199      29.58476145       5.32703492       0.00298248      -0.00015427      -0.00262253
H       -6.59090141      29.82946040       7.73896166      -0.00102844       0.00257110       0.00493652
H       -4.53214042      27.96354878       8.11812013      -0.00138840       0.00071991       0.00349670
H       -6.82168661      27.19350048       8.42806104       0.00154266       0.00210830      -0.00221115
H       -4.37612827      36.79004262       4.72112176       0.00051422       0.00118271      -0.00375381
H       -5.38367072      36.49350076       6.93203012       0.00071991      -0.00287964       0.00272537
H       -5.41050434      34.71231692       6.76587719      -0.00370239      -0.00097702      -0.00056564
H       -3.42552521      34.99642829       8.11605421       0.00267395      -0.00185119      -0.00622207
H       -3.24397024      37.37896159       7.85414327       0.00195404      -0.00431945       0.00179977
H       -1.60704303      35.07437202       5.99930793      -0.00149124       0.00380523      -0.00010284
H       -2.05896009      32.70195843       5.42187802       0.00010284       0.00190262       0.00035995
H       -2.01137446      32.94025652       7.20443157       0.00035995       0.00555358      -0.00195404
O       -5.80380310      36.68721780      -8.65979866       0.00118271      -0.00174835       0.00077133
C       -4.73590502      37.70707700      -8.85211348       0.00041138      -0.00041138      -0.00272537
C       -3.88147508      37.87769510      -7.59854811      -0.00154266       0.00133697      -0.00035995
O       -4.76465912      38.13404087      -6.39731156      -0.00113129       0.00370239      -0.00092560
C       -3.00705039      36.68371176      -7.16474934      -0.00195404       0.00066849       0.00149124
O       -1.76558787      36.75711617      -7.96361323      -0.00293106       0.00051422       0.00097702
C       -2.78864763      36.95237970      -5.65394955       0.00041138      -0.00107986       0.00097702
C       -4.13581601      37.54233918      -5.18761016       0.00005142      -0.00174835       0.00056564
P       -0.77125507      35.26912643      -8.08561904       0.00149124      -0.00077133       0.00370239
O        0.54091611      35.68113760      -8.94549509      -0.00169693       0.00380523      -0.00051422
O       -1.70503869      33.99469132      -8.47549346       0.00231399      -0.00195404       0.00365097
O       -0.34521591      35.21172364      -6.33215424      -0.00030853       0.00015427       0.00385666
C        0.90767185      34.47669958      -6.01709469      -0.00061706       0.00241684      -0.00082275
C        1.16993730      34.62502004      -4.51934374      -0.00298248       0.00082275      -0.00185119
O        0.10929326      33.90039723      -3.71903843      -0.00251968       0.00277679       0.00179977
C        2.50293891      33.96776927      -4.09233940      -0.00293106       0.00169693      -0.00138840
O        2.93138728      34.67152162      -2.86328651       0.00077133       0.00231399      -0.00097702
C        2.09241294      32.50939489      -3.78556758       0.00056564      -0.00251968      -0.00133697
C        0.73596852      32.68810229      -3.07778799      -0.00010284      -0.00282821       0.00329101
H       -4.02939981      38.32602675      -4.43034361       0.00133697      -0.00128555       0.00025711
H       -1.99245024      37.70576036      -5.54886948      -0.00046280       0.00102844      -0.00359954
H       -2.51166593      36.06332711      -5.07983855      -0.00041138      -0.00195404       0.00190262
H       -3.51419916      35.72319119      -7.34827195       0.00030853       0.00071991      -0.00133697
H       -3.22534013      38.75644501      -7.73068644      -0.00046280       0.00061706      -0.00010284
H       -5.18340449      38.66790311      -9.14823495      -0.00005142       0.00020569      -0.00205688
H       -4.07853564      37.35864948      -9.66580032      -0.00056564      -0.00210830      -0.00339386
H        0.85249804      32.88549550      -2.00369846       0.00035995       0.00411377       0.00370239
H        2.82347232      31.98880564      -3.15047638       0.00359954       0.00179977       0.00231399
H        1.97301765      31.94023392      -4.72155935       0.00000000      -0.00267395      -0.00416519
H        3.27970851      34.03751099      -4.87242780      -0.00025711       0.00586212       0.00185119
H        1.12870731      35.68205443      -4.22006493      -0.00174835       0.00107986      -0.00370239
H        1.74393413      34.91959480      -6.58528445       0.00277679      -0.00431945      -0.00066849
H        0.80369503      33.41328419      -6.29239389       0.00236542       0.00375381      -0.00118271
O       -7.36734593      25.06072925       5.26372753      -0.00426803      -0.00133697       0.00236542
H       -7.46775392      24.15854779       5.66839128      -0.00462799      -0.00077133       0.00010284
O       -7.45802963      38.05388232      -6.94214041       0.00051422      -0.00570785       0.00005142
P       -7.49682406      37.36119661      -8.57048934       0.00272537       0.00020569      -0.00113129
O       -7.66093728      38.53936898      -9.68307149      -0.00107986       0.00077133      -0.00107986
O       -8.47140970      36.06076846      -8.57990743       0.00318817       0.00066849       0.00452514
H        3.71714233      34.19667323      -2.48951184      -0.00056564       0.00041138       0.00010284
H       -6.49927008      38.18377580      -6.63903237      -0.00149124       0.00560501       0.00077133
H       -6.01753922      26.11586108       7.22903377       0.00257110      -0.00354812       0.00030853
N       -5.63280892      35.24232340       4.14396587      -0.00354812       0.00658202      -0.00154266
C       -6.74713423      34.72587234       2.25861471      -0.00457656       0.00215973      -0.00118271
N       -7.39884006      34.04304990       3.31019777      -0.00061706      -0.00082275       0.00200546
C       -6.70134701      34.36282791       4.41512281      -0.00061706      -0.00015427       0.00005142
H       -6.90847412      33.98707687       5.40987316      -0.00133697      -0.00190262       0.00627349
N       -6.02315982      35.44290500       0.09210957      -0.00226257       0.00560501      -0.00051422
C       -5.02955797      36.15454075       0.70396501       0.00365097      -0.00426803      -0.00102844
H       -4.37504965      36.70485109       0.03009405      -0.00061706       0.00077133       0.00159408
N       -4.76859030      36.21643926       2.03685146       0.00334243       0.00488510      -0.00179977
C       -5.65597282      35.47216758       2.76356395       0.00447372      -0.00318817      -0.00575927
C       -6.91730723      34.69769449       0.84196723       0.00802184      -0.00221115      -0.00107986
N       -7.85617134      33.97803765       0.18244296      -0.00375381      -0.00318817       0.00411377
H       -8.49255147      33.37220186       0.69399556       0.00025711       0.00545074      -0.00375381
H       -7.85440291      33.95392455      -0.85119161      -0.00010284      -0.00041138       0.00267395
N       -0.19963052      31.57673141      -3.20825581      -0.00077133      -0.00246826       0.00318817
C       -1.84426107      30.12603020      -2.73624340      -0.00478225       0.00503936       0.00282821
N       -1.73732117      30.16243621      -4.14567457       0.00128555      -0.00097702       0.00123413
C       -0.75061842      31.04226506      -4.38914202       0.00138840       0.00107986      -0.00390808
H       -0.41224155      31.35501118      -5.36922905      -0.00154266       0.00020569      -0.00982161
N       -2.55594089      29.64523046      -0.50107061      -0.00046280      -0.00164551       0.00221115
C       -1.56287554      30.46819988      -0.04906946       0.00421661      -0.00473083      -0.00087418
H       -1.48686961      30.55108282       1.03508076      -0.00401092      -0.00190262      -0.00503936
N       -0.69859423      31.19678640      -0.80767975      -0.00128555       0.00761047       0.00442230
C       -0.89284835      30.98827219      -2.14364466       0.00298248      -0.00581069       0.00313675
C       -2.75375898      29.46402442      -1.86098370      -0.00390808      -0.00426803       0.00041138
N       -3.79614863      28.70521710      -2.27150722       0.00241684       0.00015427       0.00308532
H       -3.98984367      28.60760694      -3.26526884       0.00226257      -0.00133697      -0.00683913
H       -4.44778578      28.29707278      -1.57948404       0.00493652       0.00560501       0.00308532
N       -4.78887277      28.60620848       3.73344654       0.00149124      -0.00493652       0.00087418
C       -5.94220311      27.88208127       3.40990495      -0.00421661       0.00390808      -0.00622207
H       -6.56651912      27.61563806       4.26099443      -0.00185119      -0.00282821      -0.00416519
C       -3.83062369      28.94424405       2.74594279      -0.00174835      -0.00061706       0.00066849
O       -2.75130439      29.55970738       3.00795753       0.00056564      -0.00123413      -0.00185119
N       -4.18174109      28.58304621       1.45066672       0.00015427      -0.00611923       0.00370239
H       -3.53048554      28.94509656       0.68017403      -0.00611923       0.00149124       0.00483367
C       -5.35900209      27.93922030       1.05175831      -0.00606780       0.00596496       0.00282821
O       -5.59187609      27.73734621      -0.19770423       0.00344528      -0.00025711       0.00015427
C       -6.26778650      27.53597357       2.12132154      -0.00437088       0.00380523       0.00082275
C       -7.52339126      26.77205795       1.76345105      -0.00215973      -0.00005142       0.00272537
H       -8.07688378      27.29798474       0.96589320      -0.00339386      -0.00133697       0.00565643
H       -8.18343975      26.65607243       2.63591009       0.00215973       0.00421661       0.00493652
H       -7.27727193      25.76864163       1.37001202      -0.00251968       0.00164551       0.00149124
N       -5.06339631      36.51855890      -4.59998761      -0.00000000      -0.00046280       0.00385666
C       -5.91104188      35.73167129      -5.38158866       0.00586212       0.00277679      -0.00210830
H       -5.83059533      35.87837980      -6.45619133       0.00426803       0.00627349       0.00519363
C       -5.02534653      36.38672760      -3.19302095       0.00107986      -0.00143982       0.00179977
O       -4.20027507      37.03893376      -2.47570444      -0.00010284       0.00205688       0.00092560
N       -5.94737846      35.49704533      -2.66222749      -0.00221115      -0.00251968      -0.00128555
H       -5.98066803      35.43627577      -1.59136844      -0.00061706       0.00061706      -0.00128555
C       -6.86082417      34.71646306      -3.38564287      -0.00061706      -0.00560501      -0.00282821
O       -7.67245974      33.94047507      -2.75756552       0.00051422      -0.00354812      -0.00066849
C       -6.80823659      34.84307691      -4.83633648      -0.00210830      -0.00308532      -0.00030853
C       -7.75806730      34.01911148      -5.67637231       0.00257110       0.00221115       0.00113129
H       -7.53854606      32.94277178      -5.57602679       0.00020569       0.00370239       0.00061706
H       -7.69359287      34.29867217      -6.73834810      -0.00462799      -0.00339386       0.00308532
H       -8.79910000      34.17029538      -5.34043599       0.00344528       0.00077133      -0.00159408
C       -5.82168405      31.39896947       1.16941708       0.00298248       0.00082275      -0.00431945
C       -5.53010066      31.56914802       2.52042211      -0.00082275      -0.00077133      -0.00293106
C       -4.42242028      32.35463563       2.94672679       0.00005142      -0.00005142       0.00231399
C       -3.61873822      32.97828247       2.00020335      -0.00123413       0.00041138       0.00005142
C       -3.88293724      32.83925327       0.59851552       0.00236542       0.00051422      -0.00185119
C       -3.06294548      33.47999176      -0.37566297       0.00102844       0.00015427      -0.00226257
C       -3.35502394      33.27469036      -1.71508320      -0.00133697       0.00185119       0.00113129
N       -2.69418754      33.71593365      -2.86212272       0.00082275       0.00128555      -0.00000000
C       -3.32795824      33.18402086      -3.99281092      -0.00066849      -0.00483367       0.00318817
C       -2.96127492      33.33006822      -5.34260286       0.00318817       0.00041138       0.00277679
C       -3.74318147      32.66770074      -6.30261853       0.00107986      -0.00113129       0.00133697
C       -4.83989769      31.84362132      -5.92192675       0.00128555      -0.00221115      -0.00179977
C       -5.19740238      31.68354940      -4.57529560       0.00154266      -0.00128555       0.00046280
C       -4.45572894      32.37826057      -3.57977328      -0.00005142      -0.00046280       0.00267395
C       -4.47834175      32.45299980      -2.13359886       0.00071991       0.00102844       0.00025711
N       -5.30938644      31.90534991      -1.18916343       0.00277679      -0.00035995      -0.00097702
C       -5.01618972      32.03352605       0.18378349      -0.00010284       0.00560501      -0.00349670
C       -6.53856200      31.16227292      -1.61697872       0.00257110      -0.00020569       0.00236542
H       -6.65809622      30.76644801       0.88578712       0.00097702      -0.00025711      -0.00164551
H       -6.17459028      31.09343799       3.25761719      -0.00113129       0.00149124       0.00030853
H       -4.23468756      32.49775686       4.01010132       0.00267395      -0.00005142       0.00498794
H       -2.79170370      33.61594451       2.31458965      -0.00071991       0.00010284       0.00149124
H       -2.21936113      34.09497491      -0.06165265      -0.00174835      -0.00200546       0.00133697
H       -1.76366393      34.14568578      -2.89608248      -0.00575927      -0.00123413      -0.00591354
H       -2.08688860      33.91277344      -5.62845587      -0.00000000       0.00061706      -0.00344528
H       -3.47354299      32.78170948      -7.35346927       0.00087418      -0.00118271      -0.00020569
H       -5.41168823      31.32125676      -6.69118907      -0.00329101      -0.00133697      -0.00287964
H       -6.02239684      31.02435888      -4.31387417       0.00020569       0.00344528      -0.00041138
H       -7.34522865      31.36419587      -0.90543288      -0.00035995      -0.00118271      -0.00025711
H       -6.86117191      31.55099747      -2.58393271       0.00000000      -0.00442230       0.00329101
H       -6.32152718      30.08576621      -1.65836586      -0.00195404      -0.00005142      -0.00138840
