
Running Job 1 of 1 CG_inp.in
qchem CG_inp.in_19066.0 /mnt/lustre/a2fs-work3/work/e89/e89/gatf89/QMMM_MD/QM/Cryptolepine/QChem/CG/Basis_631gS/qchem19066/ 1
/mnt/lustre/a2fs-work4/work/y07/shared/apps/core/qchem/6.1/exe/qcprog.exe_s CG_inp.in_19066.0 /mnt/lustre/a2fs-work3/work/e89/e89/gatf89/QMMM_MD/QM/Cryptolepine/QChem/CG/Basis_631gS/qchem19066/
                  Welcome to Q-Chem
     A Quantum Leap Into The Future Of Chemistry


 Q-Chem 6.1, Q-Chem, Inc., Pleasanton, CA (2023)

 License issued to: ARCHER2 (site)

 E. Epifanovsky,  A. T. B. Gilbert,  Xintian Feng,  Joonho Lee,  Yuezhi Mao,  
 N. Mardirossian,  P. Pokhilko,  A. White,  M. Wormit,  M. P. Coons,  
 A. L. Dempwolff,  Zhengting Gan,  D. Hait,  P. R. Horn,  L. D. Jacobson,  
 I. Kaliman,  J. Kussmann,  A. W. Lange,  Ka Un Lao,  D. S. Levine,  Jie Liu,  
 S. C. McKenzie,  A. F. Morrison,  K. D. Nanda,  F. Plasser,  D. R. Rehn,  
 M. L. Vidal,  Zhi-Qiang You,  Ying Zhu,  B. Alam,  B. Albrecht,  
 A. Aldossary,  E. Alguire,  J. H. Andersen,  V. Athavale,  D. Barton,  
 K. Begam,  A. Behn,  N. Bellonzi,  Y. A. Bernard,  E. J. Berquist,  
 H. Burton,  A. Carreras,  K. Carter-Fenk,  Mathew Chow,  Romit Chakraborty,  
 Chandrima Chakravarty,  Junhan Chen,  A. D. Chien,  K. D. Closser,  
 V. Cofer-Shabica,  L. Cunha,  S. Dasgupta,  Jia Deng,  M. de Wergifosse,  
 M. Diedenhofen,  Hainam Do,  S. Ehlert,  Po-Tung Fang,  S. Fatehi,  
 Qingguo Feng,  T. Friedhoff,  Thomas Froitzheim,  B. Ganoe,  J. Gayvert,  
 Qinghui Ge,  G. Gidofalvi,  M. Gimferrer,  M. Goldey,  Montgomery Gray,  
 J. Gomes,  C. Gonzalez-Espinoza,  S. Gulania,  A. Gunina,  J. A. Gyamfi,  
 M. W. D. Hanson-Heine,  P. H. P. Harbach,  A. W. Hauser,  M. F. Herbst,  
 M. Hernandez Vera,  M. Hodecker,  Z. C. Holden,  S. Houck,  Xunkun Huang,  
 Kerwin Hui,  B. C. Huynh,  K. Ikeda,  M. Ivanov,  Hyunjun Ji,  Zuxin Jin,  
 Hanjie Jiang,  Subrata Jana,  B. Kaduk,  S. Kaehler,  R. Kang,  
 K. Khistyaev,  Jaehoon Kim,  Yongbin Kim,  P. Klunzinger,  Z. Koczor-Benda,  
 Joong Hoon Koh,  D. Kosenkov,  Saikiran Kotaru,  L. Koulias,  T. Kowalczyk,  
 C. M. Krauter,  K. Kue,  A. Kunitsa,  T. Kus,  A. Landau,  K. V. Lawler,  
 D. Lefrancois,  S. Lehtola,  Rain Li,  Shaozhi Li,  Yi-Pei Li,  
 Jiashu Liang,  M. Liebenthal,  Hung-Hsuan Lin,  You-Sheng Lin,  Fenglai Liu,  
 Kuan-Yu Liu,  Xiao Liu,  M. Loipersberger,  A. Luenser,  C. Malbon,  
 A. Manjanath,  P. Manohar,  E. Mansoor,  S. F. Manzer,  Shan-Ping Mao,  
 A. V. Marenich,  T. Markovich,  S. Mason,  F. Matz,  S. A. Maurer,  
 P. F. McLaughlin,  M. F. S. J. Menger,  J.-M. Mewes,  S. A. Mewes,  
 P. Morgante,  Mohammad Mostafanejad,  J. W. Mullinax,  K. J. Oosterbaan,  
 G. Paran,  V. Parravicini,  Alexander C. Paul,  Suranjan K. Paul,  
 F. Pavosevic,  Zheng Pei,  S. Prager,  E. I. Proynov,  E. Ramos,  B. Rana,  
 A. E. Rask,  A. Rettig,  R. M. Richard,  F. Rob,  E. Rossomme,  T. Scheele,  
 M. Scheurer,  M. Schneider,  P. E. Schneider,  Tim K. Schramm,  N. Sergueev,  
 S. M. Sharada,  M. Sharma,  Hengyuan Shen,  W. Skomorowski,  D. W. Small,  
 C. J. Stein,  Alistair J. Sterling,  Yingli Su,  Yu-Chuan Su,  
 E. J. Sundstrom,  J. Talbot,  Zhen Tao,  J. Thirman,  Hung-Yi Tsai,  
 T. Tsuchimochi,  N. M. Tubman,  C. Utku,  S. P. Veccham,  O. Vydrov,  
 J. Wenzel,  Jonathan Wong,  J. Witte,  A. Yamada,  Chou-Hsun Yang,  Kun Yao,  
 S. Yeganeh,  S. R. Yost,  A. Zech,  F. Zeller,  Igor Ying Zhang,  
 Xing Zhang,  Yu Zhang,  D. Zuev,  A. Aspuru-Guzik,  A. T. Bell,  
 N. A. Besley,  K. B. Bravaya,  B. R. Brooks,  D. Casanova,  Jeng-Da Chai,  
 Hsing-Ta Chen,  S. Coriani,  C. J. Cramer,  A. E. DePrince, III,  
 R. A. DiStasio Jr.,  A. Dreuw,  B. D. Dunietz,  T. R. Furlani,  
 W. A. Goddard III,  S. Grimme,  S. Hammes-Schiffer,  T. Head-Gordon,  
 W. J. Hehre,  Chao-Ping Hsu,  T.-C. Jagau,  Yousung Jung,  A. Klamt,  
 Jing Kong,  D. S. Lambrecht,  Xiangyuan Li,  WanZhen Liang,  N. J. Mayhall,  
 C. W. McCurdy,  J. B. Neaton,  T. Neudecker,  C. Ochsenfeld,  
 J. A. Parkhill,  R. Peverati,  V. A. Rassolov,  Haisheng Ren,  Yihan Shao,  
 L. V. Slipchenko,  R. P. Steele,  J. E. Subotnik,  A. J. W. Thom,  
 A. Tkatchenko,  D. G. Truhlar,  T. Van Voorhis,  Fan Wang,  
 T. A. Wesolowski,  K. B. Whaley,  H. L. Woodcock III,  P. M. Zimmerman,  
 S. Faraji,  P. M. W. Gill,  M. Head-Gordon,  J. M. Herbert,  A. I. Krylov

 Contributors to earlier versions of Q-Chem not listed above: 
 R. D. Adamson,  B. Austin,  R. Baer,  J. Baker,  G. J. O. Beran,  
 K. Brandhorst,  S. T. Brown,  E. F. C. Byrd,  Arup K. Chakraborty,  
 G. K. L. Chan,  Chun-Min Chang,  Yunqing Chen,  C.-L. Cheng,  
 Siu Hung Chien,  D. M. Chipman,  D. L. Crittenden,  H. Dachsel,  
 R. J. Doerksen,  A. D. Dutoi,  R. G. Edgar,  J. Fosso-Tande,  
 L. Fusti-Molnar,  D. Ghosh,  A. Ghysels,  A. Golubeva-Zadorozhnaya,  
 J. Gonthier,  M. S. Gordon,  S. R. Gwaltney,  G. Hawkins,  J. E. Herr,  
 A. Heyden,  S. Hirata,  E. G. Hohenstein,  G. Kedziora,  F. J. Keil,  
 C. Kelley,  Jihan Kim,  R. A. King,  R. Z. Khaliullin,  P. P. Korambath,  
 W. Kurlancheek,  A. Laurent,  A. M. Lee,  M. S. Lee,  S. V. Levchenko,  
 Ching Yeh Lin,  D. Liotard,  E. Livshits,  R. C. Lochan,  I. Lotan,  
 L. A. Martinez-Martinez,  P. E. Maslen,  N. Nair,  D. P. O'Neill,  
 D. Neuhauser,  E. Neuscamman,  C. M. Oana,  R. Olivares-Amaya,  R. Olson,  
 T. M. Perrine,  B. Peters,  P. A. Pieniazek,  A. Prociuk,  Y. M. Rhee,  
 J. Ritchie,  M. A. Rohrdanz,  E. Rosta,  N. J. Russ,  H. F. Schaefer III,  
 M. W. Schmidt,  N. E. Schultz,  S. Sharma,  N. Shenvi,  C. D. Sherrill,  
 A. C. Simmonett,  A. Sodt,  T. Stein,  D. Stuck,  K. S. Thanthiriwatte,  
 V. Vanovschi,  L. Vogt,  Tao Wang,  A. Warshel,  M. A. Watson,  
 C. F. Williams,  Q. Wu,  X. Xu,  Jun Yang,  W. Zhang,  Yan Zhao

   Please cite Q-Chem as follows:
  "Software for the frontiers of quantum chemistry:
   An overview of developments in the Q-Chem 5 package"
   J. Chem. Phys. 155, 084801 (2021)
   https://doi.org/10.1063/5.0055522 (open access)

 Q-Chem 6.1.1 for Intel X86 EM64T Linux

 Parts of Q-Chem use Armadillo 9.900.5 (Nocturnal Misbehaviour).
 http://arma.sourceforge.net/

 Q-Chem begins on Fri Feb  7 07:01:40 2025  

 Host: nid002434
0

     Scratch files written to /mnt/lustre/a2fs-work3/work/e89/e89/gatf89/QMMM_MD/QM/Cryptolepine/QChem/CG/Basis_631gS/qchem19066//
 Jan1824 |scratch|qcdevops|jenkins|workspace|build_RNUM -1
 Processing $rem in /mnt/lustre/a2fs-work4/work/y07/shared/apps/core/qchem/6.1/config/preferences:
 Processing $rem in /home/e89/e89/gatf89/.qchemrc:
 Symmetry turned off for PCM/SM12/SMD calculation

 Checking the input file for inconsistencies... 	...done.

--------------------------------------------------------------
User input:
--------------------------------------------------------------
$molecule
-3 1
--
1 1
C       -5.71357201      31.49212484       1.10849487
C       -5.44873074      31.67373091       2.46039391
C       -4.38830794      32.50665548       2.90288155
C       -3.60395878      33.16523307       1.96889155
C       -3.85321053      33.02947276       0.56660070
C       -3.06870589      33.72433530      -0.39314301
C       -3.36080359      33.53521035      -1.73237428
N       -2.74318669      34.05481097      -2.85871623
C       -3.33341593      33.51515451      -3.99659204
C       -2.97313727      33.73071032      -5.33797183
C       -3.71775379      33.07195883      -6.32294444
C       -4.78151285      32.19547250      -5.97800572
C       -5.12807028      31.96584705      -4.64263848
C       -4.41163877      32.63810176      -3.61505222
C       -4.43264072      32.66284627      -2.16708574
N       -5.22014001      32.04791029      -1.23381073
C       -4.93831483      32.17539112       0.13419356
C       -6.38862347      31.22808032      -1.65286728
H       -6.51372707      30.81516387       0.81817722
H       -6.07838194      31.16075389       3.18708495
H       -4.21288626      32.64301976       3.97038050
H       -2.79344549      33.82552025       2.28557968
H       -2.25820937      34.38209722      -0.07202668
H       -1.83577515      34.52845399      -2.86768091
H       -2.12656241      34.36680871      -5.59417340
H       -3.45231354      33.23484789      -7.37021585
H       -5.33854296      31.68649371      -6.76942347
H       -5.93186425      31.26644182      -4.41693647
H       -7.24104946      31.46504503      -1.00554661
H       -6.66758197      31.49826798      -2.67056626
H       -6.13092548      30.16097612      -1.58547612
--
-4 1
P       -7.90828131      25.81505654       5.66243291
O       -8.58396308      24.97310446       6.74971082
O       -8.66703992      26.34959335       4.44667107
O       -7.19765304      27.18769809       6.31613157
C       -6.20582199      27.08160661       7.37694639
C       -5.20183695      28.24350980       7.28728555
O       -4.38417830      28.10240371       6.07464771
C       -5.79880670      29.67368416       7.22502791
O       -4.84882301      30.55484205       7.91584981
C       -5.85971171      29.96322830       5.71775564
C       -4.60694094      29.23663654       5.18747340
N       -0.20313530      31.98328685      -3.31472490
C       -0.77454361      31.38067212      -4.44182284
N       -1.69123355      30.47125906      -4.13630087
C       -1.73732443      30.47524218      -2.73704158
C       -2.57575687      29.75706979      -1.82529101
O       -3.50623647      28.94863668      -2.10854474
N       -2.27755028      30.05779158      -0.47363105
C       -1.28435747      30.93613729      -0.05293796
N       -1.06327249      31.03229579       1.28208601
N       -0.53856260      31.66386693      -0.90701106
C       -0.81231755      31.39909655      -2.20689909
P       -5.11369025      32.21934082       7.95951463
O       -4.36435660      32.71669280       9.19669726
O       -6.60054868      32.50388776       7.72876774
O       -4.34998351      32.75413369       6.56243329
C       -3.01274811      33.32930487       6.55494194
C       -3.05047761      34.84167181       6.27671029
O       -3.60589833      35.09223887       4.94242095
C       -3.90643306      35.68062268       7.25289052
O       -3.25511533      36.98183006       7.38416627
C       -5.26527943      35.78390643       6.52933750
C       -4.84168707      35.85794404       5.05134232
N       -5.81213884      35.33491468       4.08529328
C       -6.87411883      34.43637952       4.26159944
N       -7.48378188      34.12413156       3.12496371
C       -6.78347672      34.82857255       2.13924744
C       -6.88931812      34.80286510       0.71086919
O       -7.70915993      34.14540403       0.00587675
N       -5.90991225      35.61390428       0.08901376
C       -4.93421928      36.34471671       0.75763397
N       -4.05737284      37.04920447      -0.00005685
N       -4.81385236      36.35361462       2.09841415
C       -5.73966963      35.58075105       2.71636882
H       -0.48917848      31.67915860      -5.44696388
H       -2.85476152      29.55959883       0.25061250
H       -1.69267144      30.58160873       1.97110331
H       -0.46983589      31.79601113       1.60537644
H       -3.72698741      29.88968053       5.20854283
H       -5.83268816      31.03476027       5.48959672
H       -6.78556772      29.53757235       5.30647976
H       -6.78142083      29.74491064       7.71506979
H       -4.52817082      28.16098130       8.15769673
H       -6.71269769      27.10463020       8.35830202
H       -7.14668958      34.05334834       5.24062411
H       -5.90298283      35.61793208      -0.96351777
H       -4.14057035      37.11951228      -1.03191026
H       -3.34825731      37.60178282       0.47980285
H       -4.62899046      36.89324746       4.74110304
H       -5.85039648      36.66213472       6.84142531
H       -5.84426864      34.87459426       6.74015801
H       -3.99046716      35.20228861       8.24151483
H       -3.81688639      37.53537416       7.97169649
H       -2.00804622      35.20922933       6.27973041
H       -2.45466837      32.83317058       5.74381616
H       -2.49661869      33.14854213       7.51182452
O       -5.78057239      36.26132446      -8.76886047
C       -5.05077625      37.48223260      -9.07627392
C       -4.17125682      37.90060570      -7.89848310
O       -5.01712623      38.24519617      -6.74357431
C       -3.14730439      36.87872032      -7.34783526
O       -1.92296758      36.97778182      -8.11884120
C       -2.97296852      37.35201872      -5.88813990
C       -4.38467484      37.83636297      -5.51749088
N       -5.20809421      36.75698102      -4.86103901
C       -5.09550171      36.59415415      -3.45729752
O       -4.24239029      37.29663401      -2.83381816
N       -5.90641897      35.69421347      -2.82970836
C       -6.76971165      34.92529641      -3.54618840
N       -7.56777471      34.07564192      -2.86361860
C       -6.81970034      34.99785921      -4.97965682
C       -6.02717389      35.93114759      -5.59246602
P       -0.86167431      35.68500604      -8.20609633
O        0.31321556      36.18720983      -9.04927196
O       -1.60647698      34.39803450      -8.57356475
O       -0.40964485      35.62660236      -6.57909011
C        0.76770264      34.83018431      -6.25968470
C        1.07656112      34.96865225      -4.76305354
O        0.08193189      34.25669278      -3.94228473
C        2.44137328      34.34430829      -4.38221245
O        2.93444503      35.08201590      -3.22682747
C        2.05224230      32.89979401      -4.01558686
C        0.71747128      33.11525568      -3.28202916
N       -4.72212296      28.74684084       3.79909974
C       -3.71163596      29.05471435       2.83942151
O       -2.66612541      29.65758388       3.21235020
N       -3.92319870      28.70361052       1.53608240
C       -5.04074778      28.02466551       1.16903965
N       -5.21461396      27.75493415      -0.14298025
C       -6.01012510      27.59091509       2.14208792
C       -5.81406026      27.98636033       3.43460543
H       -6.01119337      36.07530921      -6.67029293
H       -7.46577063      34.34238635      -5.56279406
H       -7.57798508      34.06765970      -1.82731810
H       -8.22834998      33.48429825      -3.36612951
H       -4.38878864      38.67886426      -4.81510644
H       -2.27413566      38.20494073      -5.87322194
H       -2.60494897      36.57764587      -5.20650565
H       -3.54305353      35.85302896      -7.40344518
H       -3.62177725      38.81016445      -8.21094059
H       -5.75776284      38.29504989      -9.30616216
H       -4.40256023      37.31408436      -9.95519771
H       -6.50024885      27.72402668       4.23465513
H       -6.87900094      26.99400823       1.86322723
H       -4.58208075      28.16813445      -0.85224627
H       -6.07806827      27.31559259      -0.45913456
H        0.87112071      33.35508438      -2.21950853
H        2.79994184      32.39674986      -3.38361771
H        1.90362310      32.30405347      -4.93162579
H        3.17430676      34.39527522      -5.20490443
H        1.03634984      36.03138838      -4.47391197
H        1.62782345      35.20676641      -6.84005152
H        0.59045545      33.77116778      -6.51655315
O       -6.57137060      24.97500643       5.07964867
H       -6.41503165      24.16755788       5.61810441
O       -8.00918136      35.19112003      -8.12563067
P       -7.30720109      35.97708885      -9.42830997
O       -8.01778093      37.31032712      -9.69230125
O       -7.18357728      34.91118196     -10.52130791
H        3.71748829      34.60334989      -2.87406224
H       -8.36610893      35.84106526      -7.47789147
H       -5.64588117      26.13545682       7.28413648
$end

$rem
JOBTYPE         EDA
METHOD          BLYP
BASIS           6-31+g*
PURECART        1111
DFT_D           D3_ZERO
FRGM_METHOD     GIA
FRGM_LPCORR     RS_EXACT_SCF
EDA_BSSE        TRUE
SOLVENT_METHOD  SMD
WRITE_WFN       TRUE
$end
--------------------------------------------------------------
 Adding empirical dispersion correction 
 ----------------------------------------------------------------
 Doing -D3(0) with
 s6  =   1.00000
 s8  =   1.68200
 rs6 =   1.09400
 rs8 =   1.00000
 ----------------------------------------------------------------
 -D3 energy without 3body term =     -0.3787055203 hartrees
 ----------------------------------------------------------------
             Standard Nuclear Orientation (Angstroms)
    I     Atom           X                Y                Z
 ----------------------------------------------------------------
    1      C      -5.7135720100    31.4921248400     1.1084948700
    2      C      -5.4487307400    31.6737309100     2.4603939100
    3      C      -4.3883079400    32.5066554800     2.9028815500
    4      C      -3.6039587800    33.1652330700     1.9688915500
    5      C      -3.8532105300    33.0294727600     0.5666007000
    6      C      -3.0687058900    33.7243353000    -0.3931430100
    7      C      -3.3608035900    33.5352103500    -1.7323742800
    8      N      -2.7431866900    34.0548109700    -2.8587162300
    9      C      -3.3334159300    33.5151545100    -3.9965920400
   10      C      -2.9731372700    33.7307103200    -5.3379718300
   11      C      -3.7177537900    33.0719588300    -6.3229444400
   12      C      -4.7815128500    32.1954725000    -5.9780057200
   13      C      -5.1280702800    31.9658470500    -4.6426384800
   14      C      -4.4116387700    32.6381017600    -3.6150522200
   15      C      -4.4326407200    32.6628462700    -2.1670857400
   16      N      -5.2201400100    32.0479102900    -1.2338107300
   17      C      -4.9383148300    32.1753911200     0.1341935600
   18      C      -6.3886234700    31.2280803200    -1.6528672800
   19      H      -6.5137270700    30.8151638700     0.8181772200
   20      H      -6.0783819400    31.1607538900     3.1870849500
   21      H      -4.2128862600    32.6430197600     3.9703805000
   22      H      -2.7934454900    33.8255202500     2.2855796800
   23      H      -2.2582093700    34.3820972200    -0.0720266800
   24      H      -1.8357751500    34.5284539900    -2.8676809100
   25      H      -2.1265624100    34.3668087100    -5.5941734000
   26      H      -3.4523135400    33.2348478900    -7.3702158500
   27      H      -5.3385429600    31.6864937100    -6.7694234700
   28      H      -5.9318642500    31.2664418200    -4.4169364700
   29      H      -7.2410494600    31.4650450300    -1.0055466100
   30      H      -6.6675819700    31.4982679800    -2.6705662600
   31      H      -6.1309254800    30.1609761200    -1.5854761200
   32      P      -7.9082813100    25.8150565400     5.6624329100
   33      O      -8.5839630800    24.9731044600     6.7497108200
   34      O      -8.6670399200    26.3495933500     4.4466710700
   35      O      -7.1976530400    27.1876980900     6.3161315700
   36      C      -6.2058219900    27.0816066100     7.3769463900
   37      C      -5.2018369500    28.2435098000     7.2872855500
   38      O      -4.3841783000    28.1024037100     6.0746477100
   39      C      -5.7988067000    29.6736841600     7.2250279100
   40      O      -4.8488230100    30.5548420500     7.9158498100
   41      C      -5.8597117100    29.9632283000     5.7177556400
   42      C      -4.6069409400    29.2366365400     5.1874734000
   43      N      -0.2031353000    31.9832868500    -3.3147249000
   44      C      -0.7745436100    31.3806721200    -4.4418228400
   45      N      -1.6912335500    30.4712590600    -4.1363008700
   46      C      -1.7373244300    30.4752421800    -2.7370415800
   47      C      -2.5757568700    29.7570697900    -1.8252910100
   48      O      -3.5062364700    28.9486366800    -2.1085447400
   49      N      -2.2775502800    30.0577915800    -0.4736310500
   50      C      -1.2843574700    30.9361372900    -0.0529379600
   51      N      -1.0632724900    31.0322957900     1.2820860100
   52      N      -0.5385626000    31.6638669300    -0.9070110600
   53      C      -0.8123175500    31.3990965500    -2.2068990900
   54      P      -5.1136902500    32.2193408200     7.9595146300
   55      O      -4.3643566000    32.7166928000     9.1966972600
   56      O      -6.6005486800    32.5038877600     7.7287677400
   57      O      -4.3499835100    32.7541336900     6.5624332900
   58      C      -3.0127481100    33.3293048700     6.5549419400
   59      C      -3.0504776100    34.8416718100     6.2767102900
   60      O      -3.6058983300    35.0922388700     4.9424209500
   61      C      -3.9064330600    35.6806226800     7.2528905200
   62      O      -3.2551153300    36.9818300600     7.3841662700
   63      C      -5.2652794300    35.7839064300     6.5293375000
   64      C      -4.8416870700    35.8579440400     5.0513423200
   65      N      -5.8121388400    35.3349146800     4.0852932800
   66      C      -6.8741188300    34.4363795200     4.2615994400
   67      N      -7.4837818800    34.1241315600     3.1249637100
   68      C      -6.7834767200    34.8285725500     2.1392474400
   69      C      -6.8893181200    34.8028651000     0.7108691900
   70      O      -7.7091599300    34.1454040300     0.0058767500
   71      N      -5.9099122500    35.6139042800     0.0890137600
   72      C      -4.9342192800    36.3447167100     0.7576339700
   73      N      -4.0573728400    37.0492044700    -0.0000568500
   74      N      -4.8138523600    36.3536146200     2.0984141500
   75      C      -5.7396696300    35.5807510500     2.7163688200
   76      H      -0.4891784800    31.6791586000    -5.4469638800
   77      H      -2.8547615200    29.5595988300     0.2506125000
   78      H      -1.6926714400    30.5816087300     1.9711033100
   79      H      -0.4698358900    31.7960111300     1.6053764400
   80      H      -3.7269874100    29.8896805300     5.2085428300
   81      H      -5.8326881600    31.0347602700     5.4895967200
   82      H      -6.7855677200    29.5375723500     5.3064797600
   83      H      -6.7814208300    29.7449106400     7.7150697900
   84      H      -4.5281708200    28.1609813000     8.1576967300
   85      H      -6.7126976900    27.1046302000     8.3583020200
   86      H      -7.1466895800    34.0533483400     5.2406241100
   87      H      -5.9029828300    35.6179320800    -0.9635177700
   88      H      -4.1405703500    37.1195122800    -1.0319102600
   89      H      -3.3482573100    37.6017828200     0.4798028500
   90      H      -4.6289904600    36.8932474600     4.7411030400
   91      H      -5.8503964800    36.6621347200     6.8414253100
   92      H      -5.8442686400    34.8745942600     6.7401580100
   93      H      -3.9904671600    35.2022886100     8.2415148300
   94      H      -3.8168863900    37.5353741600     7.9716964900
   95      H      -2.0080462200    35.2092293300     6.2797304100
   96      H      -2.4546683700    32.8331705800     5.7438161600
   97      H      -2.4966186900    33.1485421300     7.5118245200
   98      O      -5.7805723900    36.2613244600    -8.7688604700
   99      C      -5.0507762500    37.4822326000    -9.0762739200
  100      C      -4.1712568200    37.9006057000    -7.8984831000
  101      O      -5.0171262300    38.2451961700    -6.7435743100
  102      C      -3.1473043900    36.8787203200    -7.3478352600
  103      O      -1.9229675800    36.9777818200    -8.1188412000
  104      C      -2.9729685200    37.3520187200    -5.8881399000
  105      C      -4.3846748400    37.8363629700    -5.5174908800
  106      N      -5.2080942100    36.7569810200    -4.8610390100
  107      C      -5.0955017100    36.5941541500    -3.4572975200
  108      O      -4.2423902900    37.2966340100    -2.8338181600
  109      N      -5.9064189700    35.6942134700    -2.8297083600
  110      C      -6.7697116500    34.9252964100    -3.5461884000
  111      N      -7.5677747100    34.0756419200    -2.8636186000
  112      C      -6.8197003400    34.9978592100    -4.9796568200
  113      C      -6.0271738900    35.9311475900    -5.5924660200
  114      P      -0.8616743100    35.6850060400    -8.2060963300
  115      O       0.3132155600    36.1872098300    -9.0492719600
  116      O      -1.6064769800    34.3980345000    -8.5735647500
  117      O      -0.4096448500    35.6266023600    -6.5790901100
  118      C       0.7677026400    34.8301843100    -6.2596847000
  119      C       1.0765611200    34.9686522500    -4.7630535400
  120      O       0.0819318900    34.2566927800    -3.9422847300
  121      C       2.4413732800    34.3443082900    -4.3822124500
  122      O       2.9344450300    35.0820159000    -3.2268274700
  123      C       2.0522423000    32.8997940100    -4.0155868600
  124      C       0.7174712800    33.1152556800    -3.2820291600
  125      N      -4.7221229600    28.7468408400     3.7990997400
  126      C      -3.7116359600    29.0547143500     2.8394215100
  127      O      -2.6661254100    29.6575838800     3.2123502000
  128      N      -3.9231987000    28.7036105200     1.5360824000
  129      C      -5.0407477800    28.0246655100     1.1690396500
  130      N      -5.2146139600    27.7549341500    -0.1429802500
  131      C      -6.0101251000    27.5909150900     2.1420879200
  132      C      -5.8140602600    27.9863603300     3.4346054300
  133      H      -6.0111933700    36.0753092100    -6.6702929300
  134      H      -7.4657706300    34.3423863500    -5.5627940600
  135      H      -7.5779850800    34.0676597000    -1.8273181000
  136      H      -8.2283499800    33.4842982500    -3.3661295100
  137      H      -4.3887886400    38.6788642600    -4.8151064400
  138      H      -2.2741356600    38.2049407300    -5.8732219400
  139      H      -2.6049489700    36.5776458700    -5.2065056500
  140      H      -3.5430535300    35.8530289600    -7.4034451800
  141      H      -3.6217772500    38.8101644500    -8.2109405900
  142      H      -5.7577628400    38.2950498900    -9.3061621600
  143      H      -4.4025602300    37.3140843600    -9.9551977100
  144      H      -6.5002488500    27.7240266800     4.2346551300
  145      H      -6.8790009400    26.9940082300     1.8632272300
  146      H      -4.5820807500    28.1681344500    -0.8522462700
  147      H      -6.0780682700    27.3155925900    -0.4591345600
  148      H       0.8711207100    33.3550843800    -2.2195085300
  149      H       2.7999418400    32.3967498600    -3.3836177100
  150      H       1.9036231000    32.3040534700    -4.9316257900
  151      H       3.1743067600    34.3952752200    -5.2049044300
  152      H       1.0363498400    36.0313883800    -4.4739119700
  153      H       1.6278234500    35.2067664100    -6.8400515200
  154      H       0.5904554500    33.7711677800    -6.5165531500
  155      O      -6.5713706000    24.9750064300     5.0796486700
  156      H      -6.4150316500    24.1675578800     5.6181044100
  157      O      -8.0091813600    35.1911200300    -8.1256306700
  158      P      -7.3072010900    35.9770888500    -9.4283099700
  159      O      -8.0177809300    37.3103271200    -9.6923012500
  160      O      -7.1835772800    34.9111819600   -10.5213079100
  161      H       3.7174882900    34.6033498900    -2.8740622400
  162      H      -8.3661089300    35.8410652600    -7.4778914700
  163      H      -5.6458811700    26.1354568200     7.2841364800
 ----------------------------------------------------------------
 Nuclear Repulsion Energy =       24467.32819725 hartrees
 There are      391 alpha and      391 beta electrons

 Q-Chem warning in module forms1/BasisType.C, line 2988:

 You are not using the predefined 5D/6D in this basis set.

 Requested basis set is 6-31+G(d)
 There are 636 shells and 1974 basis functions

 Total QAlloc Memory Limit   1500 MB
 Mega-Array Size       188 MB
 MEM_STATIC part       192 MB

 
 Using the SMD solvation model
 Solvent: water                                                           
 
 Using SMD atomic radii in place of PCM radii
 Using C-PCM dielectric factor f(eps) = (eps-1)/eps = 0.987243
 Static dielectric constant eps = 78.39
 Discretize the solute cavity surface with Lebedev spheres
	Using 110 Lebedev grid points for each H atom
	Using 194 Lebedev grid points for other atoms
	Atomic van der Waals radii will be scaled by 1.20
 Using smooth SwiG surface discretization
 Remove points where switching function is < 1.0e-08
 Keep 11515 surface tesserae and discard 14983 interior tesserae
 Molecular Surface Area = 1205.623 Angst**2

 A cutoff of  1.0D-12 yielded  87738 shell pairs
 There are    948615 function pairs (   1020950 Cartesian)
 Smallest overlap matrix eigenvalue = 4.21E-09
 Linear dependence detected in AO basis
 Tighter screening thresholds may be required for diffuse basis sets
 Use S2THRESH > 14 and THRESH = 14 in case of SCF convergence issues
 Number of orthogonalized atomic orbitals = 1956
 Maximum deviation from orthogonality = 3.005E-10

 Scale SEOQF with 1.000000e-02/1.000000e-03/1.000000e-02

 Standard Electronic Orientation quadrupole field applied
 Nucleus-field energy     =     0.0000004319 hartrees

 -----------------------------------------------------------------------
  General SCF calculation program by
  Eric Jon Sundstrom, Paul Horn, Yuezhi Mao, Dmitri Zuev, Alec White,
  David Stuck, Shaama M.S., Shane Yost, Joonho Lee, David Small,
  Daniel Levine, Susi Lehtola, Hugh Burton, Evgeny Epifanovsky,
  Bang C. Huynh
 -----------------------------------------------------------------------
================================================================
                 ALMO-EDA with the EDA2 driver                  
================================================================
 The second-generation ALMO-EDA (for DFT):                      
 P. R. Horn, Y. Mao and M. Head-Gordon, PCCP, 18, 23067 (2016)  
 Y. Mao et al. Annu. Rev. Phys. Chem. 72, 641 (2021)            
 Decomposition of the frozen energy:                            
 P. R. Horn, Y. Mao and M. Head-Gordon, JCP, 144, 114107 (2016) 
 Incorporation of implicit solvents:                            
 Y. Mao, M. Loipersberger et al. Chem. Sci., 12, 1398 (2021)    
================================================================
 Using eda2 option set 2
 Option set summary: Frozen orbital wavefunction, initial wavefunction decomposition, and traditional AO-based POL.
--------------------------------
Printing EDA Options
--------------------------------
eda_child_super_basis      0
fragmo_guess_mode          0
child_mp                   0
child_mp_orders            0
cls_elec                   1
cls_disp                   0
scfmi_mode                 1
scfmi_occs                 0
scfmi_virts                0
frz_relax                  0
frz_relax_method           0
dc_pen_start               0
dc_pen_conv                0
dc_pen_increment           0
dc_pen_steps               0
dc_pen_thresh_factor       0
dc_pen_pre_newton_thresh   0
frz_ortho_decomp           1
frz_ortho_decomp_conv      6
plot_mo_ortho_frz          0
frgm_method                2
scfmi_freeze_ss            0
separate_rehyb             0
plot_diff_den              0
eda_nocv                   0
eda_vct_relax              1
disp_free_x                0
disp_free_c                0
eda_bsse                   1
eda_pct_a                  1
eda_covp                   0
eda_vct_a                  0
--------------------------------
 Attempting to make child job directory: /mnt/lustre/a2fs-work3/work/e89/e89/gatf89/QMMM_MD/QM/Cryptolepine/QChem/CG/Basis_631gS/qchem19066//Frg1/
 Attempting to make child job directory: /mnt/lustre/a2fs-work3/work/e89/e89/gatf89/QMMM_MD/QM/Cryptolepine/QChem/CG/Basis_631gS/qchem19066//Frg2/
 Creating input file /mnt/lustre/a2fs-work3/work/e89/e89/gatf89/QMMM_MD/QM/Cryptolepine/QChem/CG/Basis_631gS/qchem19066/Frg1.input
 using default PutDataFrgm: nothing
 calling putenv with: QCSCRATCH=/mnt/lustre/a2fs-work3/work/e89/e89/gatf89/QMMM_MD/QM/Cryptolepine/QChem/CG/Basis_631gS/qchem19066/ 
 Spawning Job For Fragment 0
 Done Job For Fragment 0
 calling putenv with: QCSCRATCH=/mnt/lustre/a2fs-work3/work/e89/e89/gatf89/QMMM_MD/QM/Cryptolepine/QChem/CG/Basis_631gS 
 calling putenv with: QCTHREADS=1 
 Creating input file /mnt/lustre/a2fs-work3/work/e89/e89/gatf89/QMMM_MD/QM/Cryptolepine/QChem/CG/Basis_631gS/qchem19066/Frg2.input
 using default PutDataFrgm: nothing
 calling putenv with: QCSCRATCH=/mnt/lustre/a2fs-work3/work/e89/e89/gatf89/QMMM_MD/QM/Cryptolepine/QChem/CG/Basis_631gS/qchem19066/ 
 Spawning Job For Fragment 1
 Done Job For Fragment 1
 calling putenv with: QCSCRATCH=/mnt/lustre/a2fs-work3/work/e89/e89/gatf89/QMMM_MD/QM/Cryptolepine/QChem/CG/Basis_631gS 
 calling putenv with: QCTHREADS=1 
Doing General SCFMI
 Exchange:  B88      Correlation:  LYP
 Using SG-1 standard quadrature grid
 Dispersion:   Grimme D3
performing fock build before subrot guess so that all methods have access
 C-PCM solvent model [f = (eps-1)/eps], solve by matrix inversion
Printing subrot_rss_gen Method Specification:
Occupied Subspace Method is 0
Virtual Subspace Method is 0
Energy of the unrelaxed supersystem initial determinant -6400.695996968861
performing fock build before subrot guess so that all methods have access
Printing subrot_rss_gen Method Specification:
Occupied Subspace Method is 0
Virtual Subspace Method is 0
Energy of the unrelaxed supersystem initial determinant w/ solvent -6401.345240189665
write pseudocanon occs and virts to disk
write pseudocanon orbital energies to disk
 Adding empirical dispersion correction 
 ----------------------------------------------------------------
 Doing -D3(0) with
 s6  =   1.00000
 s8  =   1.68200
 rs6 =   1.09400
 rs8 =   1.00000
 ----------------------------------------------------------------
 -D3 energy without 3body term =     -0.0328977749 hartrees
 Adding empirical dispersion correction 
 ----------------------------------------------------------------
 Doing -D3(0) with
 s6  =   1.00000
 s8  =   1.68200
 rs6 =   1.09400
 rs8 =   1.00000
 ----------------------------------------------------------------
 -D3 energy without 3body term =     -0.2271610924 hartrees
Tolerance of ortho_decomp_scf: 1.00e-06
GDM subspace size: 20
Beginning the Orthogonal Decomposition of the Initial Supersystem Wavefunction
    1   -6400.0783752800      1.81e-02     ortho_decomp Preconditoned Steepest Descent
    2   -6400.1226847171      9.24e-05     ortho_decomp BFGS Step
    3   -6400.1226874018      9.27e-07     ortho_decomp 00000 Convergence criterion met
 Hartree-Fock
 Hartree-Fock
 Hartree-Fock
Doing General SCFMI
 Exchange:  B88      Correlation:  LYP
 Using SG-1 standard quadrature grid
 Dispersion:   Grimme D3
performing fock build at end of subrot_r(subrot) constructor so that all methods have access
<S^2> of initial wavefunction before polarization iterations 0.0000000000
Beginning iterations for the determination of the polarized wavefunction
Energy prior to optimization (guess energy) = -6401.345240189657
Begin Timing: Total SCF Calculation
begin iterations for algorithm: DIIS         
the SCF tolerance is set to 1.00e-08
    1   -6401.3452401897      3.76e-05     00000 
    2   -6401.3474892366      3.11e-05     00000 
    3   -6401.3479857978      2.63e-05     00000 
    4   -6401.3487013263      1.41e-05     00000 
    5   -6401.3489049881      8.52e-06     00000 
    6   -6401.3489383570      7.57e-06     00000 
    7   -6401.3490027361      4.03e-06     00000 
    8   -6401.3490087681      3.73e-06     00000 
    9   -6401.3490220809      2.30e-06     00000 
   10   -6401.3490254924      1.80e-06     00000 
   11   -6401.3490286035      1.07e-06     00000 
   12   -6401.3490290470      9.89e-07     00000 
   13   -6401.3490301213      5.45e-07     00000 
   14   -6401.3490302537      4.96e-07     00000 
   15   -6401.3490304933      3.01e-07     00000 
   16   -6401.3490305582      2.28e-07     00000 
   17   -6401.3490306062      1.41e-07     00000 
   18   -6401.3490306212      1.09e-07     00000 
   19   -6401.3490306316      7.86e-08     00000 
   20   -6401.3490306398      5.92e-08     00000 
   21   -6401.3490306447      3.70e-08     00000 
   22   -6401.3490306495      2.62e-08     00000 
   23   -6401.3490306513      2.11e-08     00000 
   24   -6401.3490306548      1.34e-08     00000 
   25   -6401.3490306609      1.08e-08     00000 
   26   -6401.3490306660      7.52e-09     00000 Convergence criterion met
write pseudocanon occs and virts to disk
write pseudocanon orbital energies to disk
Timing for Total SCF: 16662.00s (wall), 16613.08s (cpu)
<S^2> of polarized wavefunction after polarization iterations 0.0000000000
relaxing scfmi constraint to allow all rotations in the entire AO span
Doing General SCFMI
 Exchange:  B88      Correlation:  LYP
 Using SG-1 standard quadrature grid
 Dispersion:   Grimme D3
performing fock build at end of subrot_r(subrot) constructor so that all methods have access
<S^2> of polarized wavefunction before ct-allowed iterations 0.0000000000
Beginning iterations for the determination of the CT-Allowed wavefunction
Energy prior to optimization (guess energy) = -6401.349030630583
Begin Timing: Total SCF Calculation
begin iterations for algorithm: DIIS         
the SCF tolerance is set to 1.00e-08
    1   -6401.3490306306      1.37e-04     00000 
    2   -6401.3756738676      5.36e-06     00000 
    3   -6401.3755185552      1.11e-05     00000 
    4   -6401.3757219099      1.94e-06     00000 
    5   -6401.3757283731      7.47e-07     00000 
    6   -6401.3757293441      2.95e-07     00000 
    7   -6401.3757294908      8.96e-08     00000 
    8   -6401.3757295019      3.62e-08     00000 
    9   -6401.3757295011      1.35e-08     00000 
   10   -6401.3757294970      3.37e-09     00000 Convergence criterion met
write pseudocanon occs and virts to disk
write pseudocanon orbital energies to disk
Timing for Total SCF: 6608.00s (wall), 6596.04s (cpu)
<S^2> of ct_allowed wavefunction after ct-allowed iterations 0.0000000000
 Attempting to make child job directory: /mnt/lustre/a2fs-work3/work/e89/e89/gatf89/QMMM_MD/QM/Cryptolepine/QChem/CG/Basis_631gS/qchem19066//FrgBSSE1/
 Attempting to make child job directory: /mnt/lustre/a2fs-work3/work/e89/e89/gatf89/QMMM_MD/QM/Cryptolepine/QChem/CG/Basis_631gS/qchem19066//FrgBSSE2/
 Creating input file /mnt/lustre/a2fs-work3/work/e89/e89/gatf89/QMMM_MD/QM/Cryptolepine/QChem/CG/Basis_631gS/qchem19066/FrgBSSE1.input
 calling putenv with: QCSCRATCH=/mnt/lustre/a2fs-work3/work/e89/e89/gatf89/QMMM_MD/QM/Cryptolepine/QChem/CG/Basis_631gS/qchem19066/ 
 Spawning Job For Fragment 0
 Done Job For Fragment 0
 calling putenv with: QCSCRATCH=/mnt/lustre/a2fs-work3/work/e89/e89/gatf89/QMMM_MD/QM/Cryptolepine/QChem/CG/Basis_631gS 
 calling putenv with: QCTHREADS=1 
 Creating input file /mnt/lustre/a2fs-work3/work/e89/e89/gatf89/QMMM_MD/QM/Cryptolepine/QChem/CG/Basis_631gS/qchem19066/FrgBSSE2.input
 calling putenv with: QCSCRATCH=/mnt/lustre/a2fs-work3/work/e89/e89/gatf89/QMMM_MD/QM/Cryptolepine/QChem/CG/Basis_631gS/qchem19066/ 
 Spawning Job For Fragment 1
 Done Job For Fragment 1
 calling putenv with: QCSCRATCH=/mnt/lustre/a2fs-work3/work/e89/e89/gatf89/QMMM_MD/QM/Cryptolepine/QChem/CG/Basis_631gS 
 calling putenv with: QCTHREADS=1 
====================================================================
   Evaluating the BSSE with fragment SCF in the supersystem basis
   Fragment contributions (kJ/mol) 
   Frgm 1: 17.0380
   Frgm 2: 20.0594
   BSSE (kJ/mol) = 37.0974
====================================================================
Perturbative CTA
Number of subspaces: 2
Appending the orthogonal complement of the current SCFMI subspace
Warning: SSinAO exceeds the full AO span! Proceed anyway.
Number of subspaces in CTA becomes 2
Doing General SCFMI
 Exchange:  B88      Correlation:  LYP
 Using SG-1 standard quadrature grid
 Dispersion:   Grimme D3
performing fock build at end of subrot_r(subrot) constructor so that all methods have access
PCT method is RS
RS amplitude (X) obtained in 4 iterations
X in RS PT satisfies the quadratic equation

================================
        Results of EDA2         
================================
Basic EDA Quantities
--------------------
Fragment Energies (Ha):
1 -726.6609397268
2-5674.5917397933
--------------------
  E_prp (kJ/mol) = 0.0000
  E_sol (kJ/mol) = 703.8435
  E_frz (kJ/mol) = -851.8979 (unscreened)
 [E_frz(solv) = -148.0545 kJ/mol (unscreened FRZ + SOL)]
  E_pol (kJ/mol) = -9.9520
  E_vct (kJ/mol) = -33.0012 (CP-corrected)
  E_int (kJ/mol) = -191.0077 (CP-corrected)
--------------------


Decomposition of frozen interaction energy
--------------------
  ------------------------------
  Classical Frozen Decomposition (unscreened):
  ------------------------------
     E_cls_elec  (CLS ELEC)  (kJ/mol) = -868.8668
     E_mod_pauli (MOD PAULI) (kJ/mol) = 309.9211 (FRZ - CLS ELEC - DISP)
     E_disp      (DISP)      (kJ/mol) = -292.9522
  ------------------------------
  Classical Decomposition Terms with Solvent Contributions:
  ------------------------------
     E_sol_elec              (kJ/mol) = 724.2449
     E_cls_elec(solv)        (kJ/mol) = -144.6218 (CLS ELEC + SOL ELEC)
     E_sol_nonelec           (kJ/mol) = -20.4015
     E_mod_pauli(solv)       (kJ/mol) = 289.5196 (MOD PAULI + SOL non-ELEC)
  --------------------
  ------------------------------
  Orthogonal Frozen Decomposition (unscreened):
  ------------------------------
     E_elec   (ELEC)   (kJ/mol) = -1061.5807
     E_pauli  (PAULI)  (kJ/mol) = 502.6350
     E_disp   (DISP)   (kJ/mol) = -292.9522
  ------------------------------
  Orthogonal Decomposition Terms with Solvent Contribution:
  ------------------------------
     E_sol_elec        (kJ/mol) = 724.2449
     E_elec(solv)      (kJ/mol) = -337.3358 (ELEC + SOL ELEC)
     E_sol_nonelec     (kJ/mol) = -20.4015
     E_pauli(solv)     (kJ/mol) = 482.2335 (PAULI + SOL non-ELEC)
  --------------------
--------------------

--------------------
Perturbative CT Analysis:
--------------------
  E_pct (kJ/mol) = -74.2018
  E_HO  (kJ/mol) = 4.1032 (VCT - PCT) 
  ---------------  
  PCT Energy lowering  (row to column, kJ/mol)
            1           2    
    1   -0.000794  -28.093405
    2  -46.107206   -0.000359
  PCT Charge displacement (row to column, me-)
            1           2    
    1    3.480343   14.642993
    2   47.081120   -5.410030
--------------------

Simplified EDA Summary (kJ/mol)
--------------------
 PREPARATION      0.0000
 SOLVATION        703.8435
 FROZEN           -851.8979 (unscreened ELEC + PAULI + DISP)
[ELEC + PAULI = -558.9457, DISP = -292.9522]
 POLARIZATION    -9.9520
 CHARGE TRANSFER -33.0012     (counterpoise-corrected)
 TOTAL           -191.0077     (PRP + SOL + FRZ + POL + CT)
--------------------
 
 --------------------------------------------------------------
 
                    Orbital Energies (a.u.)
 --------------------------------------------------------------
 
 Alpha MOs
 -- Occupied --
-76.5122 -76.5119 -76.5103 -76.5100 -18.8207 -18.8163 -18.8142 -18.8119
-18.8119 -18.8117 -18.8101 -18.8101 -18.8095 -18.8093 -18.8089 -18.8081
-18.8078 -18.8059 -18.7852 -18.7830 -18.7798 -18.7786 -18.7593 -18.7583
-18.7582 -18.7579 -18.7571 -18.7570 -18.7568 -18.7562 -14.1179 -14.0874
-14.0872 -14.0858 -14.0843 -14.0703 -14.0691 -14.0667 -14.0435 -14.0399
-14.0392 -14.0379 -14.0285 -14.0275 -14.0271 -14.0250 -14.0248 -14.0235
-10.0534 -10.0500 -10.0451 -10.0431 -10.0352 -10.0332 -10.0182 -10.0162
-10.0160 -10.0145 -10.0140 -10.0097  -9.9975  -9.9957  -9.9945  -9.9860
 -9.9842  -9.9835  -9.9829  -9.9828  -9.9813  -9.9809  -9.9789  -9.9779
 -9.9778  -9.9763  -9.9756  -9.9740  -9.9727  -9.9711  -9.9711  -9.9708
 -9.9699  -9.9689  -9.9529  -9.9517  -9.9509  -9.9464  -9.9443  -9.9439
 -9.9332  -9.9299  -9.9295  -9.9292  -9.9285  -9.9268  -9.9250  -9.9249
 -9.9225  -9.9222  -9.9222  -9.9217  -9.9204  -9.9199  -6.4159  -6.4159
 -6.4144  -6.4138  -4.6440  -4.6438  -4.6431  -4.6428  -4.6425  -4.6417
 -4.6414  -4.6409  -4.6406  -4.6406  -4.6389  -4.6385  -0.9660  -0.9626
 -0.9595  -0.9569  -0.9556  -0.9552  -0.9541  -0.9516  -0.9463  -0.9451
 -0.9436  -0.9397  -0.9275  -0.9244  -0.9187  -0.9181  -0.9157  -0.9132
 -0.9092  -0.9090  -0.9084  -0.8996  -0.8977  -0.8890  -0.8803  -0.8771
 -0.8678  -0.8657  -0.8654  -0.8646  -0.8565  -0.8528  -0.8387  -0.8382
 -0.8368  -0.8366  -0.8169  -0.8148  -0.8101  -0.8080  -0.7982  -0.7956
 -0.7909  -0.7883  -0.7794  -0.7614  -0.7384  -0.7090  -0.7089  -0.7081
 -0.7051  -0.7024  -0.7020  -0.6992  -0.6888  -0.6872  -0.6806  -0.6801
 -0.6762  -0.6759  -0.6743  -0.6698  -0.6611  -0.6432  -0.6190  -0.6182
 -0.6150  -0.6137  -0.6011  -0.6003  -0.5981  -0.5945  -0.5906  -0.5832
 -0.5807  -0.5791  -0.5777  -0.5774  -0.5666  -0.5654  -0.5524  -0.5484
 -0.5473  -0.5359  -0.5330  -0.5321  -0.5288  -0.5284  -0.5246  -0.5243
 -0.5224  -0.5082  -0.5064  -0.5057  -0.5050  -0.4967  -0.4959  -0.4938
 -0.4918  -0.4876  -0.4854  -0.4836  -0.4820  -0.4804  -0.4801  -0.4738
 -0.4728  -0.4717  -0.4661  -0.4646  -0.4632  -0.4606  -0.4579  -0.4540
 -0.4524  -0.4508  -0.4501  -0.4451  -0.4426  -0.4384  -0.4378  -0.4357
 -0.4336  -0.4319  -0.4311  -0.4295  -0.4284  -0.4253  -0.4228  -0.4210
 -0.4208  -0.4185  -0.4151  -0.4141  -0.4130  -0.4117  -0.4094  -0.4076
 -0.4051  -0.4041  -0.4016  -0.3972  -0.3968  -0.3947  -0.3937  -0.3919
 -0.3916  -0.3911  -0.3898  -0.3880  -0.3871  -0.3858  -0.3845  -0.3839
 -0.3815  -0.3808  -0.3796  -0.3792  -0.3783  -0.3770  -0.3760  -0.3748
 -0.3724  -0.3718  -0.3688  -0.3678  -0.3675  -0.3657  -0.3652  -0.3631
 -0.3606  -0.3595  -0.3581  -0.3536  -0.3532  -0.3520  -0.3505  -0.3486
 -0.3477  -0.3443  -0.3441  -0.3435  -0.3420  -0.3402  -0.3377  -0.3374
 -0.3364  -0.3339  -0.3300  -0.3287  -0.3263  -0.3257  -0.3240  -0.3223
 -0.3207  -0.3203  -0.3168  -0.3147  -0.3104  -0.3082  -0.3073  -0.3045
 -0.3039  -0.3025  -0.3014  -0.3003  -0.2995  -0.2975  -0.2964  -0.2950
 -0.2908  -0.2902  -0.2865  -0.2839  -0.2837  -0.2807  -0.2802  -0.2785
 -0.2728  -0.2710  -0.2677  -0.2668  -0.2665  -0.2658  -0.2646  -0.2633
 -0.2628  -0.2623  -0.2607  -0.2579  -0.2573  -0.2555  -0.2551  -0.2499
 -0.2484  -0.2475  -0.2426  -0.2426  -0.2422  -0.2402  -0.2389  -0.2380
 -0.2367  -0.2358  -0.2351  -0.2350  -0.2336  -0.2335  -0.2332  -0.2314
 -0.2308  -0.2303  -0.2280  -0.2271  -0.2254  -0.2245  -0.2234  -0.2220
 -0.2213  -0.2207  -0.2178  -0.2176  -0.2162  -0.2157  -0.2135  -0.2131
 -0.2120  -0.2066  -0.2023  -0.1972  -0.1849  -0.1763  -0.1758
 -- Virtual --
 -0.1069  -0.0645  -0.0582  -0.0534  -0.0476  -0.0459  -0.0350  -0.0305
 -0.0293  -0.0279  -0.0259  -0.0196  -0.0158  -0.0152  -0.0135  -0.0084
 -0.0070  -0.0048  -0.0018  -0.0011  -0.0005   0.0018   0.0033   0.0050
  0.0081   0.0107   0.0122   0.0139   0.0155   0.0179   0.0187   0.0225
  0.0229   0.0250   0.0260   0.0270   0.0292   0.0314   0.0318   0.0329
  0.0354   0.0358   0.0382   0.0388   0.0399   0.0421   0.0440   0.0445
  0.0454   0.0466   0.0482   0.0492   0.0515   0.0531   0.0543   0.0545
  0.0553   0.0559   0.0565   0.0589   0.0600   0.0609   0.0617   0.0639
  0.0652   0.0662   0.0671   0.0675   0.0691   0.0708   0.0715   0.0722
  0.0731   0.0743   0.0746   0.0770   0.0791   0.0795   0.0812   0.0823
  0.0833   0.0852   0.0858   0.0864   0.0875   0.0890   0.0896   0.0903
  0.0911   0.0920   0.0936   0.0938   0.0943   0.0960   0.0971   0.0973
  0.0978   0.0982   0.0997   0.1007   0.1010   0.1019   0.1025   0.1028
  0.1038   0.1040   0.1056   0.1060   0.1070   0.1087   0.1090   0.1104
  0.1113   0.1118   0.1123   0.1129   0.1139   0.1147   0.1153   0.1165
  0.1177   0.1189   0.1201   0.1206   0.1212   0.1217   0.1224   0.1233
  0.1249   0.1261   0.1264   0.1269   0.1276   0.1291   0.1297   0.1316
  0.1328   0.1332   0.1340   0.1347   0.1350   0.1362   0.1370   0.1375
  0.1385   0.1394   0.1403   0.1412   0.1419   0.1438   0.1442   0.1447
  0.1455   0.1468   0.1470   0.1480   0.1487   0.1497   0.1500   0.1516
  0.1521   0.1525   0.1534   0.1547   0.1549   0.1563   0.1568   0.1570
  0.1584   0.1591   0.1600   0.1615   0.1617   0.1628   0.1640   0.1644
  0.1654   0.1658   0.1669   0.1683   0.1690   0.1696   0.1701   0.1715
  0.1722   0.1731   0.1746   0.1749   0.1755   0.1762   0.1770   0.1780
  0.1796   0.1799   0.1809   0.1810   0.1815   0.1827   0.1837   0.1844
  0.1846   0.1848   0.1856   0.1868   0.1883   0.1890   0.1896   0.1901
  0.1908   0.1916   0.1927   0.1939   0.1944   0.1950   0.1955   0.1960
  0.1969   0.1977   0.1985   0.1989   0.1996   0.2005   0.2021   0.2026
  0.2028   0.2043   0.2052   0.2056   0.2068   0.2072   0.2080   0.2084
  0.2089   0.2100   0.2120   0.2124   0.2129   0.2139   0.2144   0.2149
  0.2157   0.2169   0.2178   0.2188   0.2190   0.2205   0.2207   0.2215
  0.2229   0.2234   0.2241   0.2248   0.2257   0.2268   0.2278   0.2280
  0.2291   0.2303   0.2311   0.2315   0.2323   0.2334   0.2338   0.2339
  0.2350   0.2368   0.2380   0.2384   0.2386   0.2395   0.2408   0.2409
  0.2416   0.2423   0.2431   0.2439   0.2441   0.2447   0.2450   0.2460
  0.2475   0.2485   0.2489   0.2499   0.2505   0.2512   0.2516   0.2523
  0.2544   0.2554   0.2560   0.2571   0.2574   0.2581   0.2581   0.2588
  0.2605   0.2615   0.2626   0.2628   0.2638   0.2648   0.2657   0.2660
  0.2673   0.2678   0.2683   0.2691   0.2694   0.2704   0.2714   0.2718
  0.2721   0.2723   0.2744   0.2750   0.2752   0.2768   0.2776   0.2784
  0.2791   0.2798   0.2807   0.2814   0.2823   0.2831   0.2845   0.2851
  0.2860   0.2876   0.2880   0.2891   0.2897   0.2903   0.2912   0.2920
  0.2930   0.2944   0.2949   0.2962   0.2969   0.2977   0.2982   0.2989
  0.2999   0.3002   0.3013   0.3014   0.3027   0.3036   0.3037   0.3051
  0.3062   0.3067   0.3079   0.3089   0.3096   0.3104   0.3108   0.3120
  0.3136   0.3138   0.3151   0.3162   0.3172   0.3186   0.3191   0.3204
  0.3209   0.3210   0.3221   0.3228   0.3232   0.3238   0.3253   0.3270
  0.3275   0.3283   0.3291   0.3294   0.3300   0.3314   0.3327   0.3341
  0.3346   0.3356   0.3363   0.3378   0.3381   0.3390   0.3410   0.3421
  0.3423   0.3431   0.3451   0.3461   0.3464   0.3466   0.3478   0.3492
  0.3507   0.3518   0.3535   0.3538   0.3544   0.3549   0.3561   0.3574
  0.3577   0.3586   0.3604   0.3609   0.3615   0.3630   0.3638   0.3648
  0.3659   0.3667   0.3675   0.3680   0.3695   0.3698   0.3724   0.3731
  0.3739   0.3745   0.3762   0.3769   0.3782   0.3798   0.3812   0.3815
  0.3819   0.3830   0.3835   0.3859   0.3866   0.3872   0.3886   0.3896
  0.3903   0.3921   0.3937   0.3944   0.3951   0.3962   0.3981   0.3988
  0.3996   0.4003   0.4022   0.4023   0.4035   0.4053   0.4065   0.4075
  0.4081   0.4089   0.4108   0.4112   0.4130   0.4136   0.4153   0.4171
  0.4176   0.4176   0.4201   0.4203   0.4234   0.4237   0.4256   0.4264
  0.4274   0.4275   0.4298   0.4300   0.4319   0.4336   0.4344   0.4349
  0.4361   0.4381   0.4396   0.4406   0.4411   0.4426   0.4439   0.4445
  0.4468   0.4482   0.4497   0.4503   0.4521   0.4537   0.4552   0.4556
  0.4564   0.4579   0.4602   0.4609   0.4631   0.4644   0.4661   0.4667
  0.4689   0.4695   0.4707   0.4717   0.4732   0.4753   0.4765   0.4777
  0.4801   0.4811   0.4824   0.4835   0.4844   0.4860   0.4874   0.4891
  0.4895   0.4923   0.4929   0.4957   0.4963   0.4986   0.5003   0.5017
  0.5031   0.5038   0.5066   0.5080   0.5101   0.5108   0.5121   0.5132
  0.5139   0.5163   0.5175   0.5205   0.5227   0.5239   0.5251   0.5285
  0.5302   0.5314   0.5324   0.5346   0.5372   0.5376   0.5416   0.5432
  0.5452   0.5464   0.5485   0.5493   0.5514   0.5536   0.5547   0.5561
  0.5569   0.5602   0.5607   0.5649   0.5662   0.5673   0.5684   0.5703
  0.5730   0.5759   0.5789   0.5801   0.5822   0.5833   0.5858   0.5902
  0.5919   0.5933   0.5957   0.5973   0.5976   0.6032   0.6054   0.6091
  0.6097   0.6120   0.6164   0.6180   0.6231   0.6272   0.6278   0.6305
  0.6400   0.6404   0.6449   0.6472   0.6536   0.6559   0.6588   0.6706
  0.6713   0.6745   0.6785   0.6867   0.6873   0.6902   0.6955   0.7001
  0.7063   0.7121   0.7144   0.7180   0.7191   0.7240   0.7266   0.7300
  0.7317   0.7344   0.7357   0.7393   0.7413   0.7437   0.7445   0.7479
  0.7505   0.7510   0.7545   0.7566   0.7588   0.7630   0.7642   0.7667
  0.7698   0.7713   0.7725   0.7752   0.7775   0.7806   0.7814   0.7816
  0.7828   0.7875   0.7902   0.7915   0.7958   0.7976   0.8008   0.8028
  0.8042   0.8061   0.8089   0.8096   0.8141   0.8159   0.8178   0.8197
  0.8209   0.8222   0.8239   0.8252   0.8284   0.8292   0.8302   0.8357
  0.8363   0.8374   0.8403   0.8437   0.8454   0.8459   0.8484   0.8531
  0.8539   0.8557   0.8590   0.8599   0.8624   0.8641   0.8656   0.8676
  0.8692   0.8721   0.8730   0.8748   0.8758   0.8815   0.8839   0.8861
  0.8894   0.8920   0.8932   0.8946   0.8969   0.8985   0.8992   0.8997
  0.9008   0.9035   0.9066   0.9081   0.9093   0.9102   0.9159   0.9165
  0.9188   0.9213   0.9234   0.9238   0.9250   0.9257   0.9285   0.9294
  0.9302   0.9329   0.9356   0.9373   0.9395   0.9424   0.9446   0.9449
  0.9492   0.9516   0.9536   0.9551   0.9574   0.9617   0.9625   0.9631
  0.9660   0.9668   0.9688   0.9717   0.9734   0.9736   0.9756   0.9777
  0.9816   0.9820   0.9843   0.9858   0.9885   0.9894   0.9910   0.9930
  0.9959   0.9966   0.9978   0.9990   1.0003   1.0033   1.0051   1.0078
  1.0095   1.0111   1.0126   1.0148   1.0156   1.0159   1.0182   1.0213
  1.0241   1.0247   1.0268   1.0288   1.0293   1.0331   1.0345   1.0351
  1.0381   1.0394   1.0411   1.0434   1.0438   1.0446   1.0475   1.0483
  1.0492   1.0514   1.0527   1.0536   1.0547   1.0576   1.0605   1.0610
  1.0625   1.0644   1.0649   1.0696   1.0698   1.0722   1.0734   1.0764
  1.0776   1.0791   1.0810   1.0834   1.0842   1.0864   1.0892   1.0893
  1.0928   1.0938   1.0946   1.0966   1.0982   1.1001   1.1021   1.1050
  1.1080   1.1088   1.1100   1.1111   1.1131   1.1177   1.1184   1.1205
  1.1227   1.1228   1.1259   1.1275   1.1286   1.1311   1.1319   1.1341
  1.1363   1.1390   1.1402   1.1417   1.1441   1.1455   1.1487   1.1510
  1.1522   1.1553   1.1571   1.1592   1.1644   1.1649   1.1670   1.1704
  1.1738   1.1780   1.1787   1.1807   1.1825   1.1832   1.1855   1.1873
  1.1892   1.1924   1.1939   1.1950   1.1979   1.1986   1.2021   1.2034
  1.2067   1.2088   1.2100   1.2121   1.2132   1.2165   1.2182   1.2196
  1.2221   1.2241   1.2248   1.2260   1.2274   1.2313   1.2326   1.2331
  1.2343   1.2388   1.2393   1.2396   1.2415   1.2440   1.2449   1.2470
  1.2484   1.2511   1.2522   1.2555   1.2570   1.2575   1.2598   1.2611
  1.2631   1.2665   1.2672   1.2686   1.2695   1.2699   1.2726   1.2738
  1.2751   1.2791   1.2812   1.2827   1.2836   1.2857   1.2863   1.2880
  1.2903   1.2930   1.2935   1.2957   1.2969   1.2987   1.3001   1.3024
  1.3042   1.3071   1.3079   1.3098   1.3109   1.3119   1.3131   1.3171
  1.3185   1.3191   1.3202   1.3221   1.3237   1.3271   1.3293   1.3313
  1.3319   1.3338   1.3357   1.3377   1.3400   1.3403   1.3418   1.3437
  1.3472   1.3498   1.3505   1.3523   1.3550   1.3569   1.3580   1.3617
  1.3633   1.3662   1.3670   1.3678   1.3698   1.3709   1.3745   1.3755
  1.3767   1.3816   1.3827   1.3841   1.3854   1.3876   1.3891   1.3914
  1.3952   1.3980   1.3995   1.4012   1.4032   1.4063   1.4088   1.4127
  1.4136   1.4149   1.4173   1.4199   1.4217   1.4230   1.4238   1.4278
  1.4299   1.4308   1.4316   1.4351   1.4368   1.4380   1.4399   1.4409
  1.4429   1.4465   1.4486   1.4496   1.4508   1.4524   1.4546   1.4564
  1.4617   1.4628   1.4637   1.4650   1.4682   1.4697   1.4718   1.4749
  1.4776   1.4786   1.4816   1.4831   1.4857   1.4882   1.4913   1.4950
  1.4959   1.4973   1.5032   1.5038   1.5122   1.5153   1.5172   1.5198
  1.5216   1.5249   1.5255   1.5288   1.5311   1.5315   1.5373   1.5386
  1.5434   1.5448   1.5503   1.5533   1.5605   1.5621   1.5653   1.5684
  1.5713   1.5731   1.5749   1.5780   1.5783   1.5806   1.5831   1.5858
  1.5914   1.5947   1.5964   1.5985   1.6016   1.6073   1.6112   1.6114
  1.6167   1.6184   1.6221   1.6235   1.6261   1.6313   1.6339   1.6349
  1.6402   1.6426   1.6457   1.6472   1.6501   1.6506   1.6536   1.6572
  1.6595   1.6612   1.6630   1.6636   1.6670   1.6701   1.6712   1.6764
  1.6791   1.6800   1.6836   1.6851   1.6868   1.6898   1.6921   1.6930
  1.6952   1.6959   1.6990   1.7012   1.7028   1.7050   1.7071   1.7100
  1.7105   1.7137   1.7141   1.7144   1.7199   1.7227   1.7231   1.7240
  1.7269   1.7286   1.7322   1.7326   1.7344   1.7385   1.7419   1.7445
  1.7449   1.7477   1.7490   1.7508   1.7531   1.7541   1.7563   1.7569
  1.7619   1.7624   1.7634   1.7673   1.7693   1.7708   1.7716   1.7739
  1.7749   1.7774   1.7782   1.7790   1.7823   1.7852   1.7855   1.7863
  1.7880   1.7900   1.7909   1.7921   1.7931   1.7969   1.7976   1.8005
  1.8009   1.8041   1.8048   1.8070   1.8094   1.8117   1.8134   1.8156
  1.8172   1.8187   1.8196   1.8204   1.8220   1.8229   1.8240   1.8271
  1.8296   1.8299   1.8326   1.8343   1.8348   1.8375   1.8392   1.8400
  1.8431   1.8460   1.8485   1.8502   1.8509   1.8527   1.8543   1.8563
  1.8602   1.8610   1.8629   1.8648   1.8657   1.8677   1.8711   1.8726
  1.8739   1.8773   1.8807   1.8834   1.8840   1.8864   1.8891   1.8900
  1.8932   1.8965   1.8975   1.8985   1.9009   1.9022   1.9041   1.9049
  1.9096   1.9109   1.9119   1.9122   1.9137   1.9171   1.9183   1.9192
  1.9232   1.9247   1.9258   1.9289   1.9302   1.9315   1.9335   1.9372
  1.9398   1.9433   1.9437   1.9466   1.9472   1.9491   1.9509   1.9549
  1.9563   1.9594   1.9621   1.9639   1.9645   1.9667   1.9694   1.9714
  1.9720   1.9758   1.9768   1.9786   1.9797   1.9812   1.9834   1.9869
  1.9881   1.9901   1.9930   1.9954   1.9966   2.0012   2.0023   2.0050
  2.0084   2.0101   2.0128   2.0138   2.0146   2.0181   2.0216   2.0232
  2.0239   2.0279   2.0288   2.0339   2.0342   2.0388   2.0413   2.0423
  2.0439   2.0449   2.0475   2.0502   2.0546   2.0561   2.0586   2.0600
  2.0615   2.0645   2.0691   2.0697   2.0702   2.0754   2.0767   2.0800
  2.0819   2.0866   2.0877   2.0892   2.0914   2.0928   2.0938   2.0986
  2.1011   2.1042   2.1079   2.1098   2.1120   2.1149   2.1187   2.1225
  2.1238   2.1267   2.1282   2.1310   2.1330   2.1368   2.1391   2.1429
  2.1467   2.1497   2.1502   2.1526   2.1538   2.1556   2.1566   2.1573
  2.1589   2.1625   2.1642   2.1681   2.1701   2.1720   2.1765   2.1786
  2.1813   2.1852   2.1864   2.1884   2.1907   2.1921   2.1957   2.1969
  2.1996   2.2013   2.2044   2.2066   2.2086   2.2120   2.2154   2.2169
  2.2214   2.2225   2.2234   2.2244   2.2306   2.2323   2.2353   2.2393
  2.2412   2.2446   2.2467   2.2488   2.2527   2.2555   2.2579   2.2590
  2.2640   2.2666   2.2696   2.2716   2.2769   2.2822   2.2834   2.2855
  2.2867   2.2912   2.2935   2.2980   2.3026   2.3066   2.3080   2.3108
  2.3126   2.3179   2.3210   2.3220   2.3266   2.3302   2.3328   2.3377
  2.3404   2.3468   2.3532   2.3549   2.3575   2.3584   2.3605   2.3693
  2.3716   2.3750   2.3789   2.3827   2.3833   2.3883   2.3895   2.4022
  2.4029   2.4050   2.4090   2.4102   2.4123   2.4129   2.4189   2.4214
  2.4219   2.4285   2.4325   2.4346   2.4381   2.4414   2.4434   2.4449
  2.4479   2.4484   2.4511   2.4535   2.4567   2.4642   2.4678   2.4704
  2.4738   2.4800   2.4817   2.4853   2.4884   2.4909   2.4939   2.4967
  2.4995   2.5041   2.5105   2.5171   2.5271   2.5286   2.5353   2.5385
  2.5435   2.5479   2.5537   2.5594   2.5614   2.5669   2.5675   2.5705
  2.5756   2.5763   2.5796   2.5841   2.5871   2.5879   2.5899   2.5923
  2.5948   2.6005   2.6050   2.6058   2.6120   2.6142   2.6159   2.6175
  2.6181   2.6225   2.6267   2.6343   2.6363   2.6403   2.6450   2.6492
  2.6513   2.6558   2.6595   2.6669   2.6750   2.6770   2.6839   2.6947
  2.6988   2.7006   2.7018   2.7073   2.7137   2.7182   2.7206   2.7246
  2.7261   2.7329   2.7349   2.7361   2.7409   2.7478   2.7499   2.7568
  2.7572   2.7689   2.7732   2.7750   2.7787   2.7861   2.7874   2.7935
  2.7983   2.8017   2.8026   2.8089   2.8096   2.8267   2.8285   2.8298
  2.8321   2.8396   2.8431   2.8473   2.8482   2.8542   2.8602   2.8610
  2.8673   2.8698   2.8721   2.8815   2.8862   2.8939   2.8971   2.9008
  2.9108   2.9154   2.9209   2.9262   2.9287   2.9340   2.9403   2.9447
  2.9500   2.9548   2.9626   2.9637   2.9691   2.9783   2.9795   2.9870
  2.9939   3.0016   3.0039   3.0054   3.0076   3.0096   3.0131   3.0213
  3.0248   3.0255   3.0435   3.0444   3.0563   3.0649   3.1075   3.1117
  3.1148   3.1219   3.1236   3.1565   3.1690   3.1816   3.1858   3.2028
  3.2045   3.2109   3.2395   3.2643   3.2685   3.2836   3.3055   3.3479
  3.3568   3.3632   3.3967   3.4006   3.4271
 --------------------------------------------------------------
 
          Ground-State Mulliken Net Atomic Charges

     Atom                 Charge (a.u.)
  ----------------------------------------
      1 C                    -0.470128
      2 C                    -1.176669
      3 C                     0.209774
      4 C                    -0.305729
      5 C                     1.871061
      6 C                    -0.697039
      7 C                    -0.152845
      8 N                    -0.349481
      9 C                    -0.823229
     10 C                    -0.700923
     11 C                    -0.236903
     12 C                    -0.248629
     13 C                    -0.088453
     14 C                     1.302589
     15 C                     0.892709
     16 N                     0.111250
     17 C                    -0.831464
     18 C                    -0.513997
     19 H                     0.220381
     20 H                     0.210936
     21 H                     0.217164
     22 H                     0.214694
     23 H                     0.241570
     24 H                     0.485963
     25 H                     0.231806
     26 H                     0.211918
     27 H                     0.192722
     28 H                     0.203943
     29 H                     0.260194
     30 H                     0.237641
     31 H                     0.279172
     32 P                     1.918917
     33 O                    -0.936567
     34 O                    -0.963850
     35 O                    -0.683811
     36 C                    -0.397209
     37 C                     0.133332
     38 O                    -0.325442
     39 C                    -0.332921
     40 O                    -0.666180
     41 C                    -0.292194
     42 C                    -0.352603
     43 N                     0.232800
     44 C                     0.292187
     45 N                    -0.334816
     46 C                    -0.035879
     47 C                     0.363261
     48 O                    -0.676405
     49 N                    -0.512683
     50 C                     0.444852
     51 N                    -0.834281
     52 N                    -0.522681
     53 C                    -0.041385
     54 P                     2.020311
     55 O                    -0.930783
     56 O                    -0.912005
     57 O                    -0.671845
     58 C                    -0.511792
     59 C                     0.185481
     60 O                    -0.261187
     61 C                    -0.029778
     62 O                    -0.733609
     63 C                    -0.357108
     64 C                    -0.129852
     65 N                     0.073117
     66 C                     0.059621
     67 N                    -0.299153
     68 C                    -0.302895
     69 C                     0.227417
     70 O                    -0.659095
     71 N                    -0.493910
     72 C                     0.704999
     73 N                    -0.890001
     74 N                    -0.454823
     75 C                     0.113062
     76 H                     0.246532
     77 H                     0.476883
     78 H                     0.498670
     79 H                     0.448315
     80 H                     0.238293
     81 H                     0.291478
     82 H                     0.276006
     83 H                     0.243739
     84 H                     0.221318
     85 H                     0.226414
     86 H                     0.237025
     87 H                     0.482638
     88 H                     0.510895
     89 H                     0.453221
     90 H                     0.231639
     91 H                     0.243031
     92 H                     0.241178
     93 H                     0.228104
     94 H                     0.526616
     95 H                     0.213209
     96 H                     0.236182
     97 H                     0.235540
     98 O                    -0.743178
     99 C                    -0.397580
    100 C                     0.121332
    101 O                    -0.297135
    102 C                    -0.396118
    103 O                    -0.644212
    104 C                    -0.113670
    105 C                    -0.265241
    106 N                     0.092011
    107 C                     0.270222
    108 O                    -0.639044
    109 N                    -0.394419
    110 C                     1.194372
    111 N                    -0.934599
    112 C                    -1.576566
    113 C                     0.238169
    114 P                     2.153458
    115 O                    -0.949595
    116 O                    -0.925609
    117 O                    -0.675514
    118 C                    -0.323849
    119 C                    -0.024244
    120 O                    -0.256663
    121 C                    -0.054792
    122 O                    -0.742388
    123 C                    -0.362802
    124 C                    -0.462090
    125 N                     0.149670
    126 C                     0.527162
    127 O                    -0.654702
    128 N                    -0.423931
    129 C                     0.939065
    130 N                    -0.881968
    131 C                    -1.164316
    132 C                     0.166255
    133 H                     0.287496
    134 H                     0.228236
    135 H                     0.503464
    136 H                     0.463515
    137 H                     0.237920
    138 H                     0.251427
    139 H                     0.280050
    140 H                     0.269904
    141 H                     0.227705
    142 H                     0.234743
    143 H                     0.225651
    144 H                     0.239007
    145 H                     0.225510
    146 H                     0.502061
    147 H                     0.453377
    148 H                     0.231927
    149 H                     0.245613
    150 H                     0.270763
    151 H                     0.221823
    152 H                     0.220013
    153 H                     0.227422
    154 H                     0.238814
    155 O                    -1.034142
    156 H                     0.559744
    157 O                    -0.993888
    158 P                     1.984001
    159 O                    -0.943953
    160 O                    -0.941918
    161 H                     0.530116
    162 H                     0.538272
    163 H                     0.238294
  ----------------------------------------
  Sum of atomic charges =    -3.000000

 -----------------------------------------------------------------
                    Cartesian Multipole Moments
 -----------------------------------------------------------------
    Charge (ESU x 10^10)
               -14.4096
    Dipole Moment (Debye)
         X      88.7955      Y    -465.0835      Z      22.4857
       Tot     474.0178
    Quadrupole Moments (Debye-Ang)
        XX   -1280.0075     XY    2786.1353     YY  -15931.8992
        XZ      -4.0924     YZ    1118.4395     ZZ   -1774.7179
    Octopole Moments (Debye-Ang^2)
       XXX   13584.0990    XXY  -40926.2419    XYY   91948.0932
       YYY -574313.2224    XXZ      62.8721    XYZ   -2639.4400
       YYZ   49374.1397    XZZ    8753.5344    YZZ  -59377.3736
       ZZZ    5969.0723
    Hexadecapole Moments (Debye-Ang^3)
      XXXX -140279.9938   XXXY  432066.0735   XXYY ************
      XYYY 3176125.7757   YYYY ************   XXXZ    6518.0940
      XXYZ   30050.8089   XYYZ -162318.1428   YYYZ 2070647.0093
      XXZZ  -78502.9750   XYZZ  287800.3067   YYZZ ************
      XZZZ  -18672.0838   YZZZ  241545.1747   ZZZZ -214339.6705
 -----------------------------------------------------------------
 Total job time:  69302.43s(wall), 47253.74s(cpu) 
 Sat Feb  8 02:16:43 2025

        *************************************************************
        *                                                           *
        *  Thank you very much for using Q-Chem.  Have a nice day.  *
        *                                                           *
        *************************************************************


