
Running Job 1 of 1 GC_inp.in
qchem GC_inp.in_172821.0 /mnt/lustre/a2fs-work3/work/e89/e89/gatf89/QMMM_MD/QM/Cryptolepine/QChem/GC/Basis_631gS/qchem172821/ 1
/mnt/lustre/a2fs-work4/work/y07/shared/apps/core/qchem/6.1/exe/qcprog.exe_s GC_inp.in_172821.0 /mnt/lustre/a2fs-work3/work/e89/e89/gatf89/QMMM_MD/QM/Cryptolepine/QChem/GC/Basis_631gS/qchem172821/
                  Welcome to Q-Chem
     A Quantum Leap Into The Future Of Chemistry


 Q-Chem 6.1, Q-Chem, Inc., Pleasanton, CA (2023)

 License issued to: ARCHER2 (site)

 E. Epifanovsky,  A. T. B. Gilbert,  Xintian Feng,  Joonho Lee,  Yuezhi Mao,  
 N. Mardirossian,  P. Pokhilko,  A. White,  M. Wormit,  M. P. Coons,  
 A. L. Dempwolff,  Zhengting Gan,  D. Hait,  P. R. Horn,  L. D. Jacobson,  
 I. Kaliman,  J. Kussmann,  A. W. Lange,  Ka Un Lao,  D. S. Levine,  Jie Liu,  
 S. C. McKenzie,  A. F. Morrison,  K. D. Nanda,  F. Plasser,  D. R. Rehn,  
 M. L. Vidal,  Zhi-Qiang You,  Ying Zhu,  B. Alam,  B. Albrecht,  
 A. Aldossary,  E. Alguire,  J. H. Andersen,  V. Athavale,  D. Barton,  
 K. Begam,  A. Behn,  N. Bellonzi,  Y. A. Bernard,  E. J. Berquist,  
 H. Burton,  A. Carreras,  K. Carter-Fenk,  Mathew Chow,  Romit Chakraborty,  
 Chandrima Chakravarty,  Junhan Chen,  A. D. Chien,  K. D. Closser,  
 V. Cofer-Shabica,  L. Cunha,  S. Dasgupta,  Jia Deng,  M. de Wergifosse,  
 M. Diedenhofen,  Hainam Do,  S. Ehlert,  Po-Tung Fang,  S. Fatehi,  
 Qingguo Feng,  T. Friedhoff,  Thomas Froitzheim,  B. Ganoe,  J. Gayvert,  
 Qinghui Ge,  G. Gidofalvi,  M. Gimferrer,  M. Goldey,  Montgomery Gray,  
 J. Gomes,  C. Gonzalez-Espinoza,  S. Gulania,  A. Gunina,  J. A. Gyamfi,  
 M. W. D. Hanson-Heine,  P. H. P. Harbach,  A. W. Hauser,  M. F. Herbst,  
 M. Hernandez Vera,  M. Hodecker,  Z. C. Holden,  S. Houck,  Xunkun Huang,  
 Kerwin Hui,  B. C. Huynh,  K. Ikeda,  M. Ivanov,  Hyunjun Ji,  Zuxin Jin,  
 Hanjie Jiang,  Subrata Jana,  B. Kaduk,  S. Kaehler,  R. Kang,  
 K. Khistyaev,  Jaehoon Kim,  Yongbin Kim,  P. Klunzinger,  Z. Koczor-Benda,  
 Joong Hoon Koh,  D. Kosenkov,  Saikiran Kotaru,  L. Koulias,  T. Kowalczyk,  
 C. M. Krauter,  K. Kue,  A. Kunitsa,  T. Kus,  A. Landau,  K. V. Lawler,  
 D. Lefrancois,  S. Lehtola,  Rain Li,  Shaozhi Li,  Yi-Pei Li,  
 Jiashu Liang,  M. Liebenthal,  Hung-Hsuan Lin,  You-Sheng Lin,  Fenglai Liu,  
 Kuan-Yu Liu,  Xiao Liu,  M. Loipersberger,  A. Luenser,  C. Malbon,  
 A. Manjanath,  P. Manohar,  E. Mansoor,  S. F. Manzer,  Shan-Ping Mao,  
 A. V. Marenich,  T. Markovich,  S. Mason,  F. Matz,  S. A. Maurer,  
 P. F. McLaughlin,  M. F. S. J. Menger,  J.-M. Mewes,  S. A. Mewes,  
 P. Morgante,  Mohammad Mostafanejad,  J. W. Mullinax,  K. J. Oosterbaan,  
 G. Paran,  V. Parravicini,  Alexander C. Paul,  Suranjan K. Paul,  
 F. Pavosevic,  Zheng Pei,  S. Prager,  E. I. Proynov,  E. Ramos,  B. Rana,  
 A. E. Rask,  A. Rettig,  R. M. Richard,  F. Rob,  E. Rossomme,  T. Scheele,  
 M. Scheurer,  M. Schneider,  P. E. Schneider,  Tim K. Schramm,  N. Sergueev,  
 S. M. Sharada,  M. Sharma,  Hengyuan Shen,  W. Skomorowski,  D. W. Small,  
 C. J. Stein,  Alistair J. Sterling,  Yingli Su,  Yu-Chuan Su,  
 E. J. Sundstrom,  J. Talbot,  Zhen Tao,  J. Thirman,  Hung-Yi Tsai,  
 T. Tsuchimochi,  N. M. Tubman,  C. Utku,  S. P. Veccham,  O. Vydrov,  
 J. Wenzel,  Jonathan Wong,  J. Witte,  A. Yamada,  Chou-Hsun Yang,  Kun Yao,  
 S. Yeganeh,  S. R. Yost,  A. Zech,  F. Zeller,  Igor Ying Zhang,  
 Xing Zhang,  Yu Zhang,  D. Zuev,  A. Aspuru-Guzik,  A. T. Bell,  
 N. A. Besley,  K. B. Bravaya,  B. R. Brooks,  D. Casanova,  Jeng-Da Chai,  
 Hsing-Ta Chen,  S. Coriani,  C. J. Cramer,  A. E. DePrince, III,  
 R. A. DiStasio Jr.,  A. Dreuw,  B. D. Dunietz,  T. R. Furlani,  
 W. A. Goddard III,  S. Grimme,  S. Hammes-Schiffer,  T. Head-Gordon,  
 W. J. Hehre,  Chao-Ping Hsu,  T.-C. Jagau,  Yousung Jung,  A. Klamt,  
 Jing Kong,  D. S. Lambrecht,  Xiangyuan Li,  WanZhen Liang,  N. J. Mayhall,  
 C. W. McCurdy,  J. B. Neaton,  T. Neudecker,  C. Ochsenfeld,  
 J. A. Parkhill,  R. Peverati,  V. A. Rassolov,  Haisheng Ren,  Yihan Shao,  
 L. V. Slipchenko,  R. P. Steele,  J. E. Subotnik,  A. J. W. Thom,  
 A. Tkatchenko,  D. G. Truhlar,  T. Van Voorhis,  Fan Wang,  
 T. A. Wesolowski,  K. B. Whaley,  H. L. Woodcock III,  P. M. Zimmerman,  
 S. Faraji,  P. M. W. Gill,  M. Head-Gordon,  J. M. Herbert,  A. I. Krylov

 Contributors to earlier versions of Q-Chem not listed above: 
 R. D. Adamson,  B. Austin,  R. Baer,  J. Baker,  G. J. O. Beran,  
 K. Brandhorst,  S. T. Brown,  E. F. C. Byrd,  Arup K. Chakraborty,  
 G. K. L. Chan,  Chun-Min Chang,  Yunqing Chen,  C.-L. Cheng,  
 Siu Hung Chien,  D. M. Chipman,  D. L. Crittenden,  H. Dachsel,  
 R. J. Doerksen,  A. D. Dutoi,  R. G. Edgar,  J. Fosso-Tande,  
 L. Fusti-Molnar,  D. Ghosh,  A. Ghysels,  A. Golubeva-Zadorozhnaya,  
 J. Gonthier,  M. S. Gordon,  S. R. Gwaltney,  G. Hawkins,  J. E. Herr,  
 A. Heyden,  S. Hirata,  E. G. Hohenstein,  G. Kedziora,  F. J. Keil,  
 C. Kelley,  Jihan Kim,  R. A. King,  R. Z. Khaliullin,  P. P. Korambath,  
 W. Kurlancheek,  A. Laurent,  A. M. Lee,  M. S. Lee,  S. V. Levchenko,  
 Ching Yeh Lin,  D. Liotard,  E. Livshits,  R. C. Lochan,  I. Lotan,  
 L. A. Martinez-Martinez,  P. E. Maslen,  N. Nair,  D. P. O'Neill,  
 D. Neuhauser,  E. Neuscamman,  C. M. Oana,  R. Olivares-Amaya,  R. Olson,  
 T. M. Perrine,  B. Peters,  P. A. Pieniazek,  A. Prociuk,  Y. M. Rhee,  
 J. Ritchie,  M. A. Rohrdanz,  E. Rosta,  N. J. Russ,  H. F. Schaefer III,  
 M. W. Schmidt,  N. E. Schultz,  S. Sharma,  N. Shenvi,  C. D. Sherrill,  
 A. C. Simmonett,  A. Sodt,  T. Stein,  D. Stuck,  K. S. Thanthiriwatte,  
 V. Vanovschi,  L. Vogt,  Tao Wang,  A. Warshel,  M. A. Watson,  
 C. F. Williams,  Q. Wu,  X. Xu,  Jun Yang,  W. Zhang,  Yan Zhao

   Please cite Q-Chem as follows:
  "Software for the frontiers of quantum chemistry:
   An overview of developments in the Q-Chem 5 package"
   J. Chem. Phys. 155, 084801 (2021)
   https://doi.org/10.1063/5.0055522 (open access)

 Q-Chem 6.1.1 for Intel X86 EM64T Linux

 Parts of Q-Chem use Armadillo 9.900.5 (Nocturnal Misbehaviour).
 http://arma.sourceforge.net/

 Q-Chem begins on Fri Feb  7 19:43:12 2025  

 Host: nid002667
0

     Scratch files written to /mnt/lustre/a2fs-work3/work/e89/e89/gatf89/QMMM_MD/QM/Cryptolepine/QChem/GC/Basis_631gS/qchem172821//
 Jan1824 |scratch|qcdevops|jenkins|workspace|build_RNUM -1
 Processing $rem in /mnt/lustre/a2fs-work4/work/y07/shared/apps/core/qchem/6.1/config/preferences:
 Processing $rem in /home/e89/e89/gatf89/.qchemrc:
 Symmetry turned off for PCM/SM12/SMD calculation

 Checking the input file for inconsistencies... 	...done.

--------------------------------------------------------------
User input:
--------------------------------------------------------------
$molecule
-3 1
--
1 1
C        3.90403927      -0.17103625       3.06755926
C        5.16353015       0.17784296       2.58602785
C        5.42045266       0.24968018       1.18993850
C        4.40489342      -0.01489446       0.28760547
C        3.08149722      -0.30464084       0.73655530
C        2.01371914      -0.43646129      -0.19199212
C        0.74541100      -0.65063180       0.31225518
N       -0.47388501      -0.75200744      -0.33429451
C       -1.47748449      -0.98124623       0.59832285
C       -2.85697551      -1.11311155       0.37866465
C       -3.66081007      -1.38780716       1.48931009
C       -3.12528635      -1.45008508       2.80327351
C       -1.75790990      -1.27082735       3.03048513
C       -0.89943536      -1.05549718       1.91756781
C        0.51407292      -0.83432874       1.72893566
N        1.55982522      -0.78324110       2.60501737
C        2.84070251      -0.42886493       2.15757207
C        1.31296295      -1.14885207       4.02625322
H        3.74074293      -0.20749144       4.14386926
H        5.96347023       0.39718496       3.29842899
H        6.41161931       0.51840900       0.82159215
H        4.58922631       0.03753226      -0.78514363
H        2.20066862      -0.33279467      -1.26242392
H       -0.60856262      -0.69748030      -1.34376382
H       -3.27460950      -1.03116177      -0.62355777
H       -4.72693126      -1.55966146       1.33418766
H       -3.79393652      -1.62819286       3.64938009
H       -1.37364020      -1.28684981       4.04938869
H        0.63829407      -2.01224649       4.03804504
H        2.25126921      -1.45329960       4.49725397
H        0.87044336      -0.29526610       4.56096106
--
-4 1
H        8.53497936      -6.05242238       5.25859287
O        9.32229437      -5.80835799       4.71990707
P        8.97553009      -4.46233324       3.77537555
O       10.32760919      -3.93130111       3.29486738
O        7.96621918      -3.57629016       4.51337323
O        8.11450806      -5.11661331       2.49583849
C        8.73231995      -5.44239363       1.21835957
C        8.32087214      -4.45627849       0.11008567
O        6.86285111      -4.46749296      -0.07087322
C        8.67838063      -2.96927993       0.34164218
O        8.84832874      -2.38781343      -1.00039801
C        7.44488955      -2.44521948       1.08934629
C        6.29974748      -3.20427077       0.40584776
N        5.12879265      -3.47083693       1.23926518
C        5.03475708      -3.72369116       2.61488367
N        3.78885978      -3.97056220       3.00775503
C        3.02196352      -3.89132735       1.83720292
C        1.61333942      -4.03433666       1.61754546
O        0.71444333      -4.27516457       2.47522608
N        1.26526152      -3.85765016       0.25646329
C        2.15979121      -3.56573414      -0.76563630
N        1.64479047      -3.44212452      -2.02170229
N        3.48043241      -3.42813557      -0.56729786
C        3.84005502      -3.59045994       0.72985694
H        9.83207331      -5.46549219       1.30128048
H        8.36878108      -6.44553243       0.94350713
H        8.77168904      -4.81149563      -0.83237011
H        5.91990217      -2.65121045      -0.46152971
H        7.53059316      -2.70766660       2.15005876
H        7.33057271      -1.36347784       1.01193066
H        9.61217352      -2.83380248       0.90701586
H        5.91086532      -3.71269984       3.26018006
H        0.24287460      -3.92976727       0.02591500
H        2.25821394      -3.02418126      -2.72242033
H        0.62482518      -3.31484077      -2.15409004
P        8.69745682      -0.75375288      -1.36106892
O        9.46223053      -0.57915526      -2.67723038
O        8.99510032       0.11859550      -0.13985119
O        7.05133879      -0.56981347      -1.62295410
C        6.40166684      -1.14987248      -2.79085806
C        5.79613913      -0.07006277      -3.70035282
O        4.77617052       0.68655010      -2.96344251
C        6.78876801       0.98423765      -4.25953628
O        6.50893844       1.34153689      -5.64170307
C        6.62781946       2.15444206      -3.26582397
C        5.12977825       2.09874263      -2.92030339
N        4.73823900       2.64196985      -1.59148998
C        3.34209249       2.63353406      -1.26351885
O        2.51026035       2.30573287      -2.15429979
N        2.96056716       2.94881044       0.00752844
C        3.87549988       3.33073545       0.93325408
N        3.44176203       3.53565100       2.19861708
C        5.25617319       3.52250389       0.57741115
C        5.64278389       3.14312500      -0.67984057
H        7.10120733      -1.76746567      -3.37847951
H        5.58830162      -1.79457926      -2.42085200
H        5.28979185      -0.58780522      -4.53471653
H        4.51533356       2.63336538      -3.66204370
H        7.24370920       1.91402889      -2.38750160
H        6.93882060       3.12250339      -3.68316359
H        7.81689842       0.60247855      -4.26991704
H        6.67911609       3.21396663      -1.00041385
H        5.98412651       3.89326154       1.30037743
H        2.49095748       3.23243669       2.47636038
H        4.11650052       3.71844798       2.94134869
H        5.58297958       1.66531671      -5.71380552
H       -7.75997457       5.10894196       5.32091888
O       -7.25952035       4.32364584       5.63935772
P       -7.33212604       3.07755468       4.51464287
O       -8.78712710       2.78025136       4.13422837
O       -6.41380235       1.99214708       5.08000430
O       -6.51847810       3.74485378       3.21405602
C       -7.19187174       4.20800607       2.01147459
C       -6.85977554       3.32010877       0.80108077
O       -5.41047440       3.29704104       0.56687696
C       -7.26329852       1.82977794       0.90349906
O       -7.50268276       1.39179702      -0.48071199
C       -6.03002843       1.19327716       1.56176915
C       -4.87351068       1.98754223       0.93782370
N       -3.68764551       2.15439545       1.77559253
C       -3.55056382       2.24456938       3.16780152
N       -2.28672485       2.40172641       3.54989052
C       -1.55262607       2.42975103       2.35610887
C       -0.14718787       2.54405643       2.11190145
O        0.78727835       2.63679071       2.96268196
N        0.15493978       2.53052271       0.72838732
C       -0.77503328       2.39628801      -0.29475121
N       -0.30368450       2.43277763      -1.57321674
N       -2.09196851       2.26615609      -0.07136584
C       -2.40896641       2.28681171       1.24649822
H       -8.28443124       4.24938688       2.15640272
H       -6.81446353       5.22378394       1.81209615
H       -7.32763762       3.77928936      -0.08633886
H       -4.51247186       1.50275846       0.02437344
H       -6.09023593       1.33826222       2.64691549
H       -5.95065904       0.12286242       1.36050201
H       -8.18596111       1.67153149       1.48258894
H       -4.41013562       2.19123108       3.83242862
H        1.16884214       2.63439933       0.47534527
H       -0.94374994       2.10942805      -2.29958049
H        0.70970809       2.33316107      -1.76175414
P       -7.31806378      -0.17077121      -1.06623133
O       -8.10861842      -0.17615022      -2.37843265
O       -7.56777754      -1.21704320       0.02307531
O       -5.67321885      -0.26876491      -1.37633886
C       -5.05624776       0.47733316      -2.46554187
C       -4.45302761      -0.45920502      -3.52194377
O       -3.44029847      -1.31967025      -2.90088419
C       -5.44225290      -1.41224764      -4.22635132
O       -4.97425107      -1.56683662      -5.59987763
C       -5.30710564      -2.71169623      -3.40866793
C       -3.80710691      -2.71930140      -3.06890627
N       -3.40313281      -3.45552791      -1.84057946
C       -1.99712924      -3.57906268      -1.58308467
O       -1.18124645      -3.18205695      -2.46103672
N       -1.58310226      -4.09436781      -0.38943700
C       -2.48295136      -4.51147239       0.53634561
N       -2.00769873      -4.92475518       1.73480416
C       -3.89234294      -4.52455179       0.24974373
C       -4.30375304      -3.96707066      -0.93052426
H       -5.77582791       1.15935563      -2.94925364
H       -4.24305357       1.07682889      -2.02539197
H       -3.94355407       0.17110509      -4.27250048
H       -3.21082707      -3.14149094      -3.89089371
H       -5.92758988      -2.59626436      -2.50959398
H       -5.62400779      -3.61016972      -3.95811659
H       -6.47112858      -1.02092503      -4.21298605
H       -5.35744814      -3.90180786      -1.18977394
H       -4.61585577      -4.90810061       0.97058494
H       -1.02514693      -4.72317450       1.99528712
H       -2.66176301      -5.12478071       2.49192971
H       -5.56148007      -2.21730464      -6.04534172
$end

$rem
JOBTYPE         EDA
METHOD          BLYP
BASIS           6-31+g*
PURECART        1111
DFT_D           D3_ZERO
FRGM_METHOD     GIA
FRGM_LPCORR     RS_EXACT_SCF
EDA_BSSE        TRUE
SOLVENT_METHOD  SMD
WRITE_WFN       TRUE
$end
--------------------------------------------------------------
 Adding empirical dispersion correction 
 ----------------------------------------------------------------
 Doing -D3(0) with
 s6  =   1.00000
 s8  =   1.68200
 rs6 =   1.09400
 rs8 =   1.00000
 ----------------------------------------------------------------
 -D3 energy without 3body term =     -0.3877624007 hartrees
 ----------------------------------------------------------------
             Standard Nuclear Orientation (Angstroms)
    I     Atom           X                Y                Z
 ----------------------------------------------------------------
    1      C       3.9040392700    -0.1710362500     3.0675592600
    2      C       5.1635301500     0.1778429600     2.5860278500
    3      C       5.4204526600     0.2496801800     1.1899385000
    4      C       4.4048934200    -0.0148944600     0.2876054700
    5      C       3.0814972200    -0.3046408400     0.7365553000
    6      C       2.0137191400    -0.4364612900    -0.1919921200
    7      C       0.7454110000    -0.6506318000     0.3122551800
    8      N      -0.4738850100    -0.7520074400    -0.3342945100
    9      C      -1.4774844900    -0.9812462300     0.5983228500
   10      C      -2.8569755100    -1.1131115500     0.3786646500
   11      C      -3.6608100700    -1.3878071600     1.4893100900
   12      C      -3.1252863500    -1.4500850800     2.8032735100
   13      C      -1.7579099000    -1.2708273500     3.0304851300
   14      C      -0.8994353600    -1.0554971800     1.9175678100
   15      C       0.5140729200    -0.8343287400     1.7289356600
   16      N       1.5598252200    -0.7832411000     2.6050173700
   17      C       2.8407025100    -0.4288649300     2.1575720700
   18      C       1.3129629500    -1.1488520700     4.0262532200
   19      H       3.7407429300    -0.2074914400     4.1438692600
   20      H       5.9634702300     0.3971849600     3.2984289900
   21      H       6.4116193100     0.5184090000     0.8215921500
   22      H       4.5892263100     0.0375322600    -0.7851436300
   23      H       2.2006686200    -0.3327946700    -1.2624239200
   24      H      -0.6085626200    -0.6974803000    -1.3437638200
   25      H      -3.2746095000    -1.0311617700    -0.6235577700
   26      H      -4.7269312600    -1.5596614600     1.3341876600
   27      H      -3.7939365200    -1.6281928600     3.6493800900
   28      H      -1.3736402000    -1.2868498100     4.0493886900
   29      H       0.6382940700    -2.0122464900     4.0380450400
   30      H       2.2512692100    -1.4532996000     4.4972539700
   31      H       0.8704433600    -0.2952661000     4.5609610600
   32      H       8.5349793600    -6.0524223800     5.2585928700
   33      O       9.3222943700    -5.8083579900     4.7199070700
   34      P       8.9755300900    -4.4623332400     3.7753755500
   35      O      10.3276091900    -3.9313011100     3.2948673800
   36      O       7.9662191800    -3.5762901600     4.5133732300
   37      O       8.1145080600    -5.1166133100     2.4958384900
   38      C       8.7323199500    -5.4423936300     1.2183595700
   39      C       8.3208721400    -4.4562784900     0.1100856700
   40      O       6.8628511100    -4.4674929600    -0.0708732200
   41      C       8.6783806300    -2.9692799300     0.3416421800
   42      O       8.8483287400    -2.3878134300    -1.0003980100
   43      C       7.4448895500    -2.4452194800     1.0893462900
   44      C       6.2997474800    -3.2042707700     0.4058477600
   45      N       5.1287926500    -3.4708369300     1.2392651800
   46      C       5.0347570800    -3.7236911600     2.6148836700
   47      N       3.7888597800    -3.9705622000     3.0077550300
   48      C       3.0219635200    -3.8913273500     1.8372029200
   49      C       1.6133394200    -4.0343366600     1.6175454600
   50      O       0.7144433300    -4.2751645700     2.4752260800
   51      N       1.2652615200    -3.8576501600     0.2564632900
   52      C       2.1597912100    -3.5657341400    -0.7656363000
   53      N       1.6447904700    -3.4421245200    -2.0217022900
   54      N       3.4804324100    -3.4281355700    -0.5672978600
   55      C       3.8400550200    -3.5904599400     0.7298569400
   56      H       9.8320733100    -5.4654921900     1.3012804800
   57      H       8.3687810800    -6.4455324300     0.9435071300
   58      H       8.7716890400    -4.8114956300    -0.8323701100
   59      H       5.9199021700    -2.6512104500    -0.4615297100
   60      H       7.5305931600    -2.7076666000     2.1500587600
   61      H       7.3305727100    -1.3634778400     1.0119306600
   62      H       9.6121735200    -2.8338024800     0.9070158600
   63      H       5.9108653200    -3.7126998400     3.2601800600
   64      H       0.2428746000    -3.9297672700     0.0259150000
   65      H       2.2582139400    -3.0241812600    -2.7224203300
   66      H       0.6248251800    -3.3148407700    -2.1540900400
   67      P       8.6974568200    -0.7537528800    -1.3610689200
   68      O       9.4622305300    -0.5791552600    -2.6772303800
   69      O       8.9951003200     0.1185955000    -0.1398511900
   70      O       7.0513387900    -0.5698134700    -1.6229541000
   71      C       6.4016668400    -1.1498724800    -2.7908580600
   72      C       5.7961391300    -0.0700627700    -3.7003528200
   73      O       4.7761705200     0.6865501000    -2.9634425100
   74      C       6.7887680100     0.9842376500    -4.2595362800
   75      O       6.5089384400     1.3415368900    -5.6417030700
   76      C       6.6278194600     2.1544420600    -3.2658239700
   77      C       5.1297782500     2.0987426300    -2.9203033900
   78      N       4.7382390000     2.6419698500    -1.5914899800
   79      C       3.3420924900     2.6335340600    -1.2635188500
   80      O       2.5102603500     2.3057328700    -2.1542997900
   81      N       2.9605671600     2.9488104400     0.0075284400
   82      C       3.8754998800     3.3307354500     0.9332540800
   83      N       3.4417620300     3.5356510000     2.1986170800
   84      C       5.2561731900     3.5225038900     0.5774111500
   85      C       5.6427838900     3.1431250000    -0.6798405700
   86      H       7.1012073300    -1.7674656700    -3.3784795100
   87      H       5.5883016200    -1.7945792600    -2.4208520000
   88      H       5.2897918500    -0.5878052200    -4.5347165300
   89      H       4.5153335600     2.6333653800    -3.6620437000
   90      H       7.2437092000     1.9140288900    -2.3875016000
   91      H       6.9388206000     3.1225033900    -3.6831635900
   92      H       7.8168984200     0.6024785500    -4.2699170400
   93      H       6.6791160900     3.2139666300    -1.0004138500
   94      H       5.9841265100     3.8932615400     1.3003774300
   95      H       2.4909574800     3.2324366900     2.4763603800
   96      H       4.1165005200     3.7184479800     2.9413486900
   97      H       5.5829795800     1.6653167100    -5.7138055200
   98      H      -7.7599745700     5.1089419600     5.3209188800
   99      O      -7.2595203500     4.3236458400     5.6393577200
  100      P      -7.3321260400     3.0775546800     4.5146428700
  101      O      -8.7871271000     2.7802513600     4.1342283700
  102      O      -6.4138023500     1.9921470800     5.0800043000
  103      O      -6.5184781000     3.7448537800     3.2140560200
  104      C      -7.1918717400     4.2080060700     2.0114745900
  105      C      -6.8597755400     3.3201087700     0.8010807700
  106      O      -5.4104744000     3.2970410400     0.5668769600
  107      C      -7.2632985200     1.8297779400     0.9034990600
  108      O      -7.5026827600     1.3917970200    -0.4807119900
  109      C      -6.0300284300     1.1932771600     1.5617691500
  110      C      -4.8735106800     1.9875422300     0.9378237000
  111      N      -3.6876455100     2.1543954500     1.7755925300
  112      C      -3.5505638200     2.2445693800     3.1678015200
  113      N      -2.2867248500     2.4017264100     3.5498905200
  114      C      -1.5526260700     2.4297510300     2.3561088700
  115      C      -0.1471878700     2.5440564300     2.1119014500
  116      O       0.7872783500     2.6367907100     2.9626819600
  117      N       0.1549397800     2.5305227100     0.7283873200
  118      C      -0.7750332800     2.3962880100    -0.2947512100
  119      N      -0.3036845000     2.4327776300    -1.5732167400
  120      N      -2.0919685100     2.2661560900    -0.0713658400
  121      C      -2.4089664100     2.2868117100     1.2464982200
  122      H      -8.2844312400     4.2493868800     2.1564027200
  123      H      -6.8144635300     5.2237839400     1.8120961500
  124      H      -7.3276376200     3.7792893600    -0.0863388600
  125      H      -4.5124718600     1.5027584600     0.0243734400
  126      H      -6.0902359300     1.3382622200     2.6469154900
  127      H      -5.9506590400     0.1228624200     1.3605020100
  128      H      -8.1859611100     1.6715314900     1.4825889400
  129      H      -4.4101356200     2.1912310800     3.8324286200
  130      H       1.1688421400     2.6343993300     0.4753452700
  131      H      -0.9437499400     2.1094280500    -2.2995804900
  132      H       0.7097080900     2.3331610700    -1.7617541400
  133      P      -7.3180637800    -0.1707712100    -1.0662313300
  134      O      -8.1086184200    -0.1761502200    -2.3784326500
  135      O      -7.5677775400    -1.2170432000     0.0230753100
  136      O      -5.6732188500    -0.2687649100    -1.3763388600
  137      C      -5.0562477600     0.4773331600    -2.4655418700
  138      C      -4.4530276100    -0.4592050200    -3.5219437700
  139      O      -3.4402984700    -1.3196702500    -2.9008841900
  140      C      -5.4422529000    -1.4122476400    -4.2263513200
  141      O      -4.9742510700    -1.5668366200    -5.5998776300
  142      C      -5.3071056400    -2.7116962300    -3.4086679300
  143      C      -3.8071069100    -2.7193014000    -3.0689062700
  144      N      -3.4031328100    -3.4555279100    -1.8405794600
  145      C      -1.9971292400    -3.5790626800    -1.5830846700
  146      O      -1.1812464500    -3.1820569500    -2.4610367200
  147      N      -1.5831022600    -4.0943678100    -0.3894370000
  148      C      -2.4829513600    -4.5114723900     0.5363456100
  149      N      -2.0076987300    -4.9247551800     1.7348041600
  150      C      -3.8923429400    -4.5245517900     0.2497437300
  151      C      -4.3037530400    -3.9670706600    -0.9305242600
  152      H      -5.7758279100     1.1593556300    -2.9492536400
  153      H      -4.2430535700     1.0768288900    -2.0253919700
  154      H      -3.9435540700     0.1711050900    -4.2725004800
  155      H      -3.2108270700    -3.1414909400    -3.8908937100
  156      H      -5.9275898800    -2.5962643600    -2.5095939800
  157      H      -5.6240077900    -3.6101697200    -3.9581165900
  158      H      -6.4711285800    -1.0209250300    -4.2129860500
  159      H      -5.3574481400    -3.9018078600    -1.1897739400
  160      H      -4.6158557700    -4.9081006100     0.9705849400
  161      H      -1.0251469300    -4.7231745000     1.9952871200
  162      H      -2.6617630100    -5.1247807100     2.4919297100
  163      H      -5.5614800700    -2.2173046400    -6.0453417200
 ----------------------------------------------------------------
 Nuclear Repulsion Energy =       24907.04779331 hartrees
 There are      391 alpha and      391 beta electrons

 Q-Chem warning in module forms1/BasisType.C, line 2988:

 You are not using the predefined 5D/6D in this basis set.

 Requested basis set is 6-31+G(d)
 There are 636 shells and 1974 basis functions

 Total QAlloc Memory Limit   1500 MB
 Mega-Array Size       188 MB
 MEM_STATIC part       192 MB

 
 Using the SMD solvation model
 Solvent: water                                                           
 
 Using SMD atomic radii in place of PCM radii
 Using C-PCM dielectric factor f(eps) = (eps-1)/eps = 0.987243
 Static dielectric constant eps = 78.39
 Discretize the solute cavity surface with Lebedev spheres
	Using 110 Lebedev grid points for each H atom
	Using 194 Lebedev grid points for other atoms
	Atomic van der Waals radii will be scaled by 1.20
 Using smooth SwiG surface discretization
 Remove points where switching function is < 1.0e-08
 Keep 11429 surface tesserae and discard 15069 interior tesserae
 Molecular Surface Area = 1201.958 Angst**2

 A cutoff of  1.0D-12 yielded  90233 shell pairs
 There are    978455 function pairs (   1053155 Cartesian)
 Smallest overlap matrix eigenvalue = 2.52E-09
 Linear dependence detected in AO basis
 Tighter screening thresholds may be required for diffuse basis sets
 Use S2THRESH > 14 and THRESH = 14 in case of SCF convergence issues
 Number of orthogonalized atomic orbitals = 1958
 Maximum deviation from orthogonality = 1.875E-10

 Scale SEOQF with 1.000000e-02/1.000000e-02/1.000000e-02

 Standard Electronic Orientation quadrupole field applied
 Nucleus-field energy     =     0.0000000752 hartrees

 -----------------------------------------------------------------------
  General SCF calculation program by
  Eric Jon Sundstrom, Paul Horn, Yuezhi Mao, Dmitri Zuev, Alec White,
  David Stuck, Shaama M.S., Shane Yost, Joonho Lee, David Small,
  Daniel Levine, Susi Lehtola, Hugh Burton, Evgeny Epifanovsky,
  Bang C. Huynh
 -----------------------------------------------------------------------
================================================================
                 ALMO-EDA with the EDA2 driver                  
================================================================
 The second-generation ALMO-EDA (for DFT):                      
 P. R. Horn, Y. Mao and M. Head-Gordon, PCCP, 18, 23067 (2016)  
 Y. Mao et al. Annu. Rev. Phys. Chem. 72, 641 (2021)            
 Decomposition of the frozen energy:                            
 P. R. Horn, Y. Mao and M. Head-Gordon, JCP, 144, 114107 (2016) 
 Incorporation of implicit solvents:                            
 Y. Mao, M. Loipersberger et al. Chem. Sci., 12, 1398 (2021)    
================================================================
 Using eda2 option set 2
 Option set summary: Frozen orbital wavefunction, initial wavefunction decomposition, and traditional AO-based POL.
--------------------------------
Printing EDA Options
--------------------------------
eda_child_super_basis      0
fragmo_guess_mode          0
child_mp                   0
child_mp_orders            0
cls_elec                   1
cls_disp                   0
scfmi_mode                 1
scfmi_occs                 0
scfmi_virts                0
frz_relax                  0
frz_relax_method           0
dc_pen_start               0
dc_pen_conv                0
dc_pen_increment           0
dc_pen_steps               0
dc_pen_thresh_factor       0
dc_pen_pre_newton_thresh   0
frz_ortho_decomp           1
frz_ortho_decomp_conv      6
plot_mo_ortho_frz          0
frgm_method                2
scfmi_freeze_ss            0
separate_rehyb             0
plot_diff_den              0
eda_nocv                   0
eda_vct_relax              1
disp_free_x                0
disp_free_c                0
eda_bsse                   1
eda_pct_a                  1
eda_covp                   0
eda_vct_a                  0
--------------------------------
 Attempting to make child job directory: /mnt/lustre/a2fs-work3/work/e89/e89/gatf89/QMMM_MD/QM/Cryptolepine/QChem/GC/Basis_631gS/qchem172821//Frg1/
 Attempting to make child job directory: /mnt/lustre/a2fs-work3/work/e89/e89/gatf89/QMMM_MD/QM/Cryptolepine/QChem/GC/Basis_631gS/qchem172821//Frg2/
 Creating input file /mnt/lustre/a2fs-work3/work/e89/e89/gatf89/QMMM_MD/QM/Cryptolepine/QChem/GC/Basis_631gS/qchem172821/Frg1.input
 using default PutDataFrgm: nothing
 calling putenv with: QCSCRATCH=/mnt/lustre/a2fs-work3/work/e89/e89/gatf89/QMMM_MD/QM/Cryptolepine/QChem/GC/Basis_631gS/qchem172821/ 
 Spawning Job For Fragment 0
 Done Job For Fragment 0
 calling putenv with: QCSCRATCH=/mnt/lustre/a2fs-work3/work/e89/e89/gatf89/QMMM_MD/QM/Cryptolepine/QChem/GC/Basis_631gS 
 calling putenv with: QCTHREADS=1 
 Creating input file /mnt/lustre/a2fs-work3/work/e89/e89/gatf89/QMMM_MD/QM/Cryptolepine/QChem/GC/Basis_631gS/qchem172821/Frg2.input
 using default PutDataFrgm: nothing
 calling putenv with: QCSCRATCH=/mnt/lustre/a2fs-work3/work/e89/e89/gatf89/QMMM_MD/QM/Cryptolepine/QChem/GC/Basis_631gS/qchem172821/ 
 Spawning Job For Fragment 1
 Done Job For Fragment 1
 calling putenv with: QCSCRATCH=/mnt/lustre/a2fs-work3/work/e89/e89/gatf89/QMMM_MD/QM/Cryptolepine/QChem/GC/Basis_631gS 
 calling putenv with: QCTHREADS=1 
Doing General SCFMI
 Exchange:  B88      Correlation:  LYP
 Using SG-1 standard quadrature grid
 Dispersion:   Grimme D3
performing fock build before subrot guess so that all methods have access
 C-PCM solvent model [f = (eps-1)/eps], solve by matrix inversion
Printing subrot_rss_gen Method Specification:
Occupied Subspace Method is 0
Virtual Subspace Method is 0
Energy of the unrelaxed supersystem initial determinant -6400.689838476730
performing fock build before subrot guess so that all methods have access
Printing subrot_rss_gen Method Specification:
Occupied Subspace Method is 0
Virtual Subspace Method is 0
Energy of the unrelaxed supersystem initial determinant w/ solvent -6401.334706408157
write pseudocanon occs and virts to disk
write pseudocanon orbital energies to disk
 Adding empirical dispersion correction 
 ----------------------------------------------------------------
 Doing -D3(0) with
 s6  =   1.00000
 s8  =   1.68200
 rs6 =   1.09400
 rs8 =   1.00000
 ----------------------------------------------------------------
 -D3 energy without 3body term =     -0.0331915630 hartrees
 Adding empirical dispersion correction 
 ----------------------------------------------------------------
 Doing -D3(0) with
 s6  =   1.00000
 s8  =   1.68200
 rs6 =   1.09400
 rs8 =   1.00000
 ----------------------------------------------------------------
 -D3 energy without 3body term =     -0.2375546807 hartrees
Tolerance of ortho_decomp_scf: 1.00e-06
GDM subspace size: 20
Beginning the Orthogonal Decomposition of the Initial Supersystem Wavefunction
    1   -6400.0560797672      1.75e-02     ortho_decomp Preconditoned Steepest Descent
    2   -6400.0991299679      9.11e-05     ortho_decomp BFGS Step
    3   -6400.0991326050      9.57e-07     ortho_decomp 00000 Convergence criterion met
 Hartree-Fock
 Hartree-Fock
 Hartree-Fock
Doing General SCFMI
 Exchange:  B88      Correlation:  LYP
 Using SG-1 standard quadrature grid
 Dispersion:   Grimme D3
performing fock build at end of subrot_r(subrot) constructor so that all methods have access
<S^2> of initial wavefunction before polarization iterations 0.0000000000
Beginning iterations for the determination of the polarized wavefunction
Energy prior to optimization (guess energy) = -6401.334706408157
Begin Timing: Total SCF Calculation
begin iterations for algorithm: DIIS         
the SCF tolerance is set to 1.00e-08
    1   -6401.3347064082      3.82e-05     00000 
    2   -6401.3369132919      3.20e-05     00000 
    3   -6401.3373611396      2.80e-05     00000 
    4   -6401.3382055810      1.53e-05     00000 
    5   -6401.3384298484      1.01e-05     00000 
    6   -6401.3385077843      7.63e-06     00000 
    7   -6401.3385727871      4.41e-06     00000 
    8   -6401.3385826882      3.81e-06     00000 
    9   -6401.3385956057      2.49e-06     00000 
   10   -6401.3385993634      1.97e-06     00000 
   11   -6401.3386029338      1.24e-06     00000 
   12   -6401.3386036094      1.15e-06     00000 
   13   -6401.3386048999      6.73e-07     00000 
   14   -6401.3386052041      5.14e-07     00000 
   15   -6401.3386054413      3.50e-07     00000 
   16   -6401.3386055343      2.53e-07     00000 
   17   -6401.3386055958      1.55e-07     00000 
   18   -6401.3386056095      1.28e-07     00000 
   19   -6401.3386056228      8.65e-08     00000 
   20   -6401.3386056271      6.41e-08     00000 
   21   -6401.3386056302      4.17e-08     00000 
   22   -6401.3386056317      2.84e-08     00000 
   23   -6401.3386056300      2.34e-08     00000 
   24   -6401.3386056300      1.63e-08     00000 
   25   -6401.3386056312      1.20e-08     00000 
   26   -6401.3386056305      9.14e-09     00000 Convergence criterion met
write pseudocanon occs and virts to disk
write pseudocanon orbital energies to disk
Timing for Total SCF: 17559.00s (wall), 17406.07s (cpu)
<S^2> of polarized wavefunction after polarization iterations 0.0000000000
relaxing scfmi constraint to allow all rotations in the entire AO span
Doing General SCFMI
 Exchange:  B88      Correlation:  LYP
 Using SG-1 standard quadrature grid
 Dispersion:   Grimme D3
performing fock build at end of subrot_r(subrot) constructor so that all methods have access
<S^2> of polarized wavefunction before ct-allowed iterations 0.0000000000
Beginning iterations for the determination of the CT-Allowed wavefunction
Energy prior to optimization (guess energy) = -6401.338605640613
Begin Timing: Total SCF Calculation
begin iterations for algorithm: DIIS         
the SCF tolerance is set to 1.00e-08
    1   -6401.3386056406      1.40e-04     00000 
    2   -6401.3648952210      4.41e-06     00000 
    3   -6401.3647952397      9.01e-06     00000 
    4   -6401.3649283649      1.23e-06     00000 
    5   -6401.3649304809      6.27e-07     00000 
    6   -6401.3649310908      2.18e-07     00000 
    7   -6401.3649311665      6.93e-08     00000 
    8   -6401.3649311759      3.24e-08     00000 
    9   -6401.3649311827      1.05e-08     00000 
   10   -6401.3649311866      3.64e-09     00000 Convergence criterion met
write pseudocanon occs and virts to disk
write pseudocanon orbital energies to disk
Timing for Total SCF: 6729.00s (wall), 6716.60s (cpu)
<S^2> of ct_allowed wavefunction after ct-allowed iterations 0.0000000000
 Attempting to make child job directory: /mnt/lustre/a2fs-work3/work/e89/e89/gatf89/QMMM_MD/QM/Cryptolepine/QChem/GC/Basis_631gS/qchem172821//FrgBSSE1/
 Attempting to make child job directory: /mnt/lustre/a2fs-work3/work/e89/e89/gatf89/QMMM_MD/QM/Cryptolepine/QChem/GC/Basis_631gS/qchem172821//FrgBSSE2/
 Creating input file /mnt/lustre/a2fs-work3/work/e89/e89/gatf89/QMMM_MD/QM/Cryptolepine/QChem/GC/Basis_631gS/qchem172821/FrgBSSE1.input
 calling putenv with: QCSCRATCH=/mnt/lustre/a2fs-work3/work/e89/e89/gatf89/QMMM_MD/QM/Cryptolepine/QChem/GC/Basis_631gS/qchem172821/ 
 Spawning Job For Fragment 0
 Done Job For Fragment 0
 calling putenv with: QCSCRATCH=/mnt/lustre/a2fs-work3/work/e89/e89/gatf89/QMMM_MD/QM/Cryptolepine/QChem/GC/Basis_631gS 
 calling putenv with: QCTHREADS=1 
 Creating input file /mnt/lustre/a2fs-work3/work/e89/e89/gatf89/QMMM_MD/QM/Cryptolepine/QChem/GC/Basis_631gS/qchem172821/FrgBSSE2.input
 calling putenv with: QCSCRATCH=/mnt/lustre/a2fs-work3/work/e89/e89/gatf89/QMMM_MD/QM/Cryptolepine/QChem/GC/Basis_631gS/qchem172821/ 
 Spawning Job For Fragment 1
 Done Job For Fragment 1
 calling putenv with: QCSCRATCH=/mnt/lustre/a2fs-work3/work/e89/e89/gatf89/QMMM_MD/QM/Cryptolepine/QChem/GC/Basis_631gS 
 calling putenv with: QCTHREADS=1 
====================================================================
   Evaluating the BSSE with fragment SCF in the supersystem basis
   Fragment contributions (kJ/mol) 
   Frgm 1: 18.4282
   Frgm 2: 21.0895
   BSSE (kJ/mol) = 39.5177
====================================================================
Perturbative CTA
Number of subspaces: 2
Appending the orthogonal complement of the current SCFMI subspace
Warning: SSinAO exceeds the full AO span! Proceed anyway.
Number of subspaces in CTA becomes 2
Doing General SCFMI
 Exchange:  B88      Correlation:  LYP
 Using SG-1 standard quadrature grid
 Dispersion:   Grimme D3
performing fock build at end of subrot_r(subrot) constructor so that all methods have access
PCT method is RS
RS amplitude (X) obtained in 3 iterations
X in RS PT satisfies the quadratic equation

================================
        Results of EDA2         
================================
Basic EDA Quantities
--------------------
Fragment Energies (Ha):
1 -726.6611775775
2-5674.5854030823
--------------------
  E_prp (kJ/mol) = -0.0000
  E_sol (kJ/mol) = 765.8397
  E_frz (kJ/mol) = -901.3208 (unscreened)
 [E_frz(solv) = -135.4810 kJ/mol (unscreened FRZ + SOL)]
  E_pol (kJ/mol) = -10.2375
  E_vct (kJ/mol) = -29.6008 (CP-corrected)
  E_int (kJ/mol) = -175.3194 (CP-corrected)
--------------------


Decomposition of frozen interaction energy
--------------------
  ------------------------------
  Classical Frozen Decomposition (unscreened):
  ------------------------------
     E_cls_elec  (CLS ELEC)  (kJ/mol) = -926.9052
     E_mod_pauli (MOD PAULI) (kJ/mol) = 314.2170 (FRZ - CLS ELEC - DISP)
     E_disp      (DISP)      (kJ/mol) = -288.6326
  ------------------------------
  Classical Decomposition Terms with Solvent Contributions:
  ------------------------------
     E_sol_elec              (kJ/mol) = 784.6298
     E_cls_elec(solv)        (kJ/mol) = -142.2754 (CLS ELEC + SOL ELEC)
     E_sol_nonelec           (kJ/mol) = -18.7901
     E_mod_pauli(solv)       (kJ/mol) = 295.4269 (MOD PAULI + SOL non-ELEC)
  --------------------
  ------------------------------
  Orthogonal Frozen Decomposition (unscreened):
  ------------------------------
     E_elec   (ELEC)   (kJ/mol) = -1114.4645
     E_pauli  (PAULI)  (kJ/mol) = 501.7763
     E_disp   (DISP)   (kJ/mol) = -288.6326
  ------------------------------
  Orthogonal Decomposition Terms with Solvent Contribution:
  ------------------------------
     E_sol_elec        (kJ/mol) = 784.6298
     E_elec(solv)      (kJ/mol) = -329.8347 (ELEC + SOL ELEC)
     E_sol_nonelec     (kJ/mol) = -18.7901
     E_pauli(solv)     (kJ/mol) = 482.9862 (PAULI + SOL non-ELEC)
  --------------------
--------------------

--------------------
Perturbative CT Analysis:
--------------------
  E_pct (kJ/mol) = -73.2116
  E_HO  (kJ/mol) = 4.0930 (VCT - PCT) 
  ---------------  
  PCT Energy lowering  (row to column, kJ/mol)
            1           2    
    1   -0.000198  -28.813157
    2  -44.397988   -0.000233
  PCT Charge displacement (row to column, me-)
            1           2    
    1    6.015333   10.118615
    2   34.041495   -3.507276
--------------------

Simplified EDA Summary (kJ/mol)
--------------------
 PREPARATION      -0.0000
 SOLVATION        765.8397
 FROZEN           -901.3208 (unscreened ELEC + PAULI + DISP)
[ELEC + PAULI = -612.6882, DISP = -288.6326]
 POLARIZATION    -10.2375
 CHARGE TRANSFER -29.6008     (counterpoise-corrected)
 TOTAL           -175.3194     (PRP + SOL + FRZ + POL + CT)
--------------------
 
 --------------------------------------------------------------
 
                    Orbital Energies (a.u.)
 --------------------------------------------------------------
 
 Alpha MOs
 -- Occupied --
-76.5109 -76.5109 -76.5096 -76.5091 -18.8118 -18.8112 -18.8104 -18.8103
-18.8102 -18.8099 -18.8083 -18.8082 -18.8081 -18.8081 -18.8080 -18.8074
-18.8073 -18.8061 -18.7838 -18.7833 -18.7815 -18.7814 -18.7576 -18.7572
-18.7567 -18.7564 -18.7563 -18.7556 -18.7554 -18.7553 -14.1181 -14.0918
-14.0918 -14.0851 -14.0837 -14.0728 -14.0680 -14.0676 -14.0442 -14.0437
-14.0379 -14.0376 -14.0278 -14.0269 -14.0263 -14.0260 -14.0259 -14.0250
-10.0541 -10.0539 -10.0431 -10.0426 -10.0341 -10.0334 -10.0186 -10.0186
-10.0165 -10.0152 -10.0103 -10.0093  -9.9946  -9.9939  -9.9935  -9.9884
 -9.9830  -9.9825  -9.9823  -9.9822  -9.9813  -9.9812  -9.9801  -9.9766
 -9.9763  -9.9746  -9.9744  -9.9742  -9.9737  -9.9736  -9.9696  -9.9691
 -9.9689  -9.9686  -9.9537  -9.9519  -9.9492  -9.9452  -9.9442  -9.9441
 -9.9340  -9.9336  -9.9328  -9.9313  -9.9312  -9.9279  -9.9240  -9.9237
 -9.9236  -9.9233  -9.9219  -9.9204  -9.9173  -9.9164  -6.4149  -6.4148
 -6.4131  -6.4127  -4.6429  -4.6428  -4.6419  -4.6418  -4.6413  -4.6407
 -4.6400  -4.6397  -4.6396  -4.6396  -4.6379  -4.6375  -0.9637  -0.9636
 -0.9592  -0.9590  -0.9538  -0.9534  -0.9495  -0.9488  -0.9441  -0.9429
 -0.9411  -0.9403  -0.9211  -0.9204  -0.9201  -0.9196  -0.9192  -0.9089
 -0.9085  -0.9061  -0.9060  -0.8984  -0.8978  -0.8904  -0.8816  -0.8812
 -0.8649  -0.8646  -0.8645  -0.8639  -0.8574  -0.8571  -0.8377  -0.8370
 -0.8362  -0.8362  -0.8154  -0.8148  -0.8086  -0.8082  -0.7961  -0.7953
 -0.7917  -0.7916  -0.7803  -0.7625  -0.7386  -0.7107  -0.7100  -0.7085
 -0.7034  -0.7033  -0.7007  -0.6995  -0.6872  -0.6869  -0.6802  -0.6798
 -0.6775  -0.6751  -0.6748  -0.6711  -0.6612  -0.6439  -0.6196  -0.6192
 -0.6154  -0.6148  -0.6016  -0.6005  -0.6001  -0.5949  -0.5944  -0.5818
 -0.5810  -0.5801  -0.5770  -0.5765  -0.5692  -0.5689  -0.5541  -0.5439
 -0.5410  -0.5384  -0.5371  -0.5364  -0.5297  -0.5290  -0.5241  -0.5241
 -0.5215  -0.5056  -0.5046  -0.5028  -0.5023  -0.4976  -0.4906  -0.4899
 -0.4886  -0.4878  -0.4858  -0.4828  -0.4827  -0.4807  -0.4797  -0.4739
 -0.4731  -0.4719  -0.4663  -0.4660  -0.4640  -0.4631  -0.4618  -0.4590
 -0.4569  -0.4545  -0.4523  -0.4460  -0.4446  -0.4370  -0.4367  -0.4363
 -0.4336  -0.4320  -0.4313  -0.4278  -0.4277  -0.4262  -0.4224  -0.4172
 -0.4153  -0.4134  -0.4112  -0.4101  -0.4100  -0.4076  -0.4062  -0.4054
 -0.4043  -0.4012  -0.3985  -0.3975  -0.3966  -0.3949  -0.3944  -0.3939
 -0.3935  -0.3924  -0.3889  -0.3870  -0.3869  -0.3858  -0.3844  -0.3836
 -0.3819  -0.3813  -0.3804  -0.3783  -0.3780  -0.3777  -0.3758  -0.3744
 -0.3731  -0.3715  -0.3714  -0.3710  -0.3687  -0.3677  -0.3661  -0.3646
 -0.3622  -0.3600  -0.3564  -0.3556  -0.3551  -0.3545  -0.3533  -0.3510
 -0.3453  -0.3437  -0.3427  -0.3414  -0.3405  -0.3393  -0.3362  -0.3324
 -0.3307  -0.3304  -0.3296  -0.3272  -0.3266  -0.3255  -0.3217  -0.3208
 -0.3193  -0.3166  -0.3147  -0.3131  -0.3099  -0.3066  -0.3033  -0.3032
 -0.3031  -0.3027  -0.3008  -0.2998  -0.2995  -0.2985  -0.2964  -0.2960
 -0.2952  -0.2941  -0.2862  -0.2851  -0.2807  -0.2795  -0.2766  -0.2760
 -0.2736  -0.2732  -0.2709  -0.2681  -0.2651  -0.2647  -0.2642  -0.2642
 -0.2630  -0.2620  -0.2600  -0.2578  -0.2574  -0.2561  -0.2553  -0.2491
 -0.2485  -0.2481  -0.2423  -0.2392  -0.2375  -0.2369  -0.2359  -0.2358
 -0.2347  -0.2342  -0.2339  -0.2334  -0.2328  -0.2322  -0.2311  -0.2303
 -0.2298  -0.2284  -0.2264  -0.2260  -0.2249  -0.2244  -0.2235  -0.2232
 -0.2228  -0.2225  -0.2202  -0.2195  -0.2145  -0.2133  -0.2127  -0.2119
 -0.2115  -0.2080  -0.2040  -0.1994  -0.1858  -0.1779  -0.1749
 -- Virtual --
 -0.1081  -0.0650  -0.0646  -0.0554  -0.0463  -0.0428  -0.0358  -0.0346
 -0.0328  -0.0305  -0.0293  -0.0208  -0.0155  -0.0151  -0.0093  -0.0078
 -0.0067  -0.0042  -0.0021  -0.0015   0.0002   0.0016   0.0039   0.0065
  0.0084   0.0111   0.0129   0.0135   0.0168   0.0197   0.0213   0.0224
  0.0232   0.0244   0.0256   0.0270   0.0302   0.0337   0.0345   0.0347
  0.0366   0.0373   0.0398   0.0406   0.0422   0.0432   0.0461   0.0471
  0.0480   0.0493   0.0508   0.0526   0.0530   0.0531   0.0544   0.0548
  0.0558   0.0578   0.0596   0.0611   0.0631   0.0635   0.0641   0.0648
  0.0657   0.0673   0.0681   0.0688   0.0695   0.0709   0.0719   0.0727
  0.0734   0.0754   0.0762   0.0779   0.0783   0.0796   0.0802   0.0815
  0.0825   0.0833   0.0843   0.0858   0.0865   0.0870   0.0884   0.0887
  0.0898   0.0901   0.0905   0.0925   0.0944   0.0955   0.0958   0.0977
  0.0982   0.0992   0.1001   0.1012   0.1022   0.1032   0.1056   0.1060
  0.1063   0.1075   0.1078   0.1087   0.1097   0.1099   0.1106   0.1110
  0.1118   0.1128   0.1137   0.1140   0.1153   0.1161   0.1168   0.1176
  0.1181   0.1186   0.1208   0.1220   0.1227   0.1235   0.1246   0.1251
  0.1267   0.1279   0.1281   0.1296   0.1304   0.1310   0.1321   0.1331
  0.1338   0.1353   0.1359   0.1366   0.1369   0.1379   0.1394   0.1401
  0.1403   0.1419   0.1421   0.1430   0.1435   0.1448   0.1453   0.1464
  0.1470   0.1473   0.1477   0.1487   0.1494   0.1511   0.1512   0.1522
  0.1523   0.1534   0.1546   0.1552   0.1555   0.1563   0.1576   0.1583
  0.1592   0.1607   0.1611   0.1616   0.1622   0.1626   0.1639   0.1651
  0.1657   0.1665   0.1686   0.1687   0.1700   0.1702   0.1711   0.1716
  0.1726   0.1740   0.1748   0.1753   0.1763   0.1770   0.1778   0.1780
  0.1793   0.1798   0.1808   0.1814   0.1825   0.1827   0.1834   0.1844
  0.1853   0.1863   0.1871   0.1877   0.1889   0.1895   0.1900   0.1904
  0.1907   0.1918   0.1922   0.1934   0.1936   0.1946   0.1955   0.1967
  0.1980   0.1985   0.2000   0.2003   0.2012   0.2015   0.2021   0.2026
  0.2036   0.2039   0.2050   0.2061   0.2070   0.2078   0.2090   0.2092
  0.2106   0.2108   0.2113   0.2120   0.2139   0.2146   0.2153   0.2161
  0.2163   0.2168   0.2179   0.2184   0.2202   0.2207   0.2215   0.2220
  0.2230   0.2239   0.2256   0.2261   0.2269   0.2270   0.2282   0.2284
  0.2295   0.2307   0.2313   0.2323   0.2332   0.2338   0.2343   0.2354
  0.2364   0.2370   0.2381   0.2394   0.2396   0.2399   0.2400   0.2404
  0.2416   0.2432   0.2440   0.2457   0.2463   0.2467   0.2471   0.2487
  0.2494   0.2506   0.2512   0.2516   0.2524   0.2537   0.2541   0.2550
  0.2555   0.2566   0.2575   0.2579   0.2588   0.2597   0.2601   0.2612
  0.2618   0.2622   0.2635   0.2645   0.2652   0.2660   0.2663   0.2674
  0.2685   0.2690   0.2701   0.2710   0.2717   0.2724   0.2738   0.2740
  0.2746   0.2756   0.2761   0.2762   0.2772   0.2776   0.2780   0.2790
  0.2804   0.2820   0.2824   0.2833   0.2838   0.2845   0.2854   0.2857
  0.2871   0.2878   0.2885   0.2894   0.2902   0.2913   0.2927   0.2937
  0.2940   0.2951   0.2968   0.2973   0.2978   0.2985   0.2994   0.3014
  0.3018   0.3021   0.3029   0.3041   0.3048   0.3050   0.3067   0.3075
  0.3090   0.3096   0.3098   0.3106   0.3113   0.3116   0.3122   0.3129
  0.3144   0.3147   0.3160   0.3167   0.3175   0.3187   0.3193   0.3200
  0.3208   0.3215   0.3231   0.3236   0.3243   0.3250   0.3252   0.3271
  0.3284   0.3293   0.3298   0.3319   0.3326   0.3334   0.3338   0.3345
  0.3352   0.3353   0.3367   0.3372   0.3380   0.3384   0.3405   0.3408
  0.3424   0.3431   0.3441   0.3455   0.3466   0.3474   0.3476   0.3479
  0.3490   0.3500   0.3511   0.3523   0.3542   0.3543   0.3559   0.3587
  0.3595   0.3604   0.3615   0.3617   0.3631   0.3645   0.3647   0.3659
  0.3681   0.3687   0.3697   0.3706   0.3719   0.3727   0.3744   0.3748
  0.3759   0.3769   0.3782   0.3797   0.3813   0.3820   0.3830   0.3831
  0.3850   0.3862   0.3871   0.3880   0.3884   0.3891   0.3901   0.3913
  0.3919   0.3933   0.3940   0.3944   0.3953   0.3958   0.3974   0.3976
  0.3995   0.4017   0.4027   0.4052   0.4059   0.4063   0.4082   0.4094
  0.4100   0.4109   0.4116   0.4122   0.4139   0.4145   0.4156   0.4167
  0.4177   0.4187   0.4203   0.4218   0.4234   0.4241   0.4253   0.4264
  0.4280   0.4286   0.4311   0.4328   0.4337   0.4346   0.4353   0.4359
  0.4381   0.4391   0.4406   0.4419   0.4428   0.4432   0.4452   0.4471
  0.4478   0.4497   0.4506   0.4525   0.4545   0.4567   0.4581   0.4583
  0.4593   0.4603   0.4616   0.4627   0.4654   0.4669   0.4673   0.4682
  0.4702   0.4708   0.4727   0.4749   0.4759   0.4777   0.4786   0.4796
  0.4809   0.4837   0.4858   0.4869   0.4875   0.4886   0.4896   0.4916
  0.4924   0.4944   0.4957   0.4986   0.5016   0.5028   0.5038   0.5059
  0.5080   0.5091   0.5102   0.5116   0.5128   0.5136   0.5155   0.5180
  0.5186   0.5215   0.5233   0.5242   0.5258   0.5263   0.5280   0.5300
  0.5328   0.5335   0.5339   0.5371   0.5385   0.5421   0.5424   0.5457
  0.5475   0.5485   0.5494   0.5516   0.5536   0.5542   0.5546   0.5572
  0.5611   0.5625   0.5634   0.5679   0.5697   0.5711   0.5730   0.5758
  0.5784   0.5806   0.5848   0.5872   0.5888   0.5918   0.5937   0.5948
  0.5979   0.5999   0.6022   0.6039   0.6067   0.6109   0.6130   0.6165
  0.6186   0.6216   0.6234   0.6246   0.6251   0.6301   0.6322   0.6358
  0.6382   0.6431   0.6461   0.6468   0.6540   0.6569   0.6614   0.6671
  0.6742   0.6766   0.6831   0.6860   0.6887   0.6903   0.6990   0.6992
  0.7059   0.7069   0.7075   0.7102   0.7168   0.7204   0.7241   0.7275
  0.7299   0.7319   0.7357   0.7377   0.7389   0.7423   0.7437   0.7451
  0.7482   0.7494   0.7516   0.7533   0.7558   0.7571   0.7607   0.7630
  0.7635   0.7696   0.7726   0.7733   0.7744   0.7758   0.7789   0.7825
  0.7858   0.7866   0.7880   0.7892   0.7915   0.7935   0.7951   0.7982
  0.8000   0.8020   0.8048   0.8060   0.8082   0.8129   0.8146   0.8169
  0.8197   0.8210   0.8238   0.8251   0.8290   0.8323   0.8338   0.8351
  0.8367   0.8379   0.8385   0.8399   0.8428   0.8441   0.8456   0.8481
  0.8486   0.8525   0.8530   0.8581   0.8587   0.8604   0.8609   0.8624
  0.8655   0.8669   0.8704   0.8709   0.8747   0.8759   0.8775   0.8821
  0.8876   0.8897   0.8901   0.8907   0.8941   0.8966   0.8987   0.9022
  0.9036   0.9063   0.9071   0.9100   0.9130   0.9137   0.9150   0.9191
  0.9206   0.9224   0.9243   0.9252   0.9288   0.9290   0.9298   0.9319
  0.9327   0.9344   0.9372   0.9394   0.9407   0.9427   0.9455   0.9466
  0.9471   0.9485   0.9517   0.9523   0.9554   0.9569   0.9595   0.9616
  0.9637   0.9661   0.9671   0.9682   0.9704   0.9723   0.9737   0.9766
  0.9788   0.9810   0.9843   0.9862   0.9866   0.9886   0.9896   0.9924
  0.9939   0.9948   0.9977   0.9986   1.0026   1.0035   1.0059   1.0076
  1.0108   1.0132   1.0155   1.0162   1.0177   1.0206   1.0212   1.0222
  1.0242   1.0281   1.0289   1.0300   1.0314   1.0336   1.0354   1.0378
  1.0401   1.0413   1.0425   1.0442   1.0451   1.0470   1.0489   1.0500
  1.0513   1.0540   1.0558   1.0584   1.0610   1.0616   1.0639   1.0656
  1.0658   1.0674   1.0685   1.0696   1.0715   1.0736   1.0745   1.0755
  1.0773   1.0785   1.0801   1.0823   1.0845   1.0861   1.0883   1.0897
  1.0915   1.0918   1.0944   1.0955   1.0968   1.0996   1.1019   1.1035
  1.1059   1.1085   1.1092   1.1110   1.1149   1.1153   1.1163   1.1189
  1.1202   1.1225   1.1234   1.1250   1.1278   1.1300   1.1337   1.1342
  1.1351   1.1380   1.1397   1.1417   1.1443   1.1471   1.1518   1.1542
  1.1562   1.1586   1.1604   1.1627   1.1647   1.1668   1.1687   1.1692
  1.1710   1.1716   1.1755   1.1795   1.1809   1.1854   1.1858   1.1896
  1.1912   1.1926   1.1940   1.1952   1.1975   1.1983   1.2015   1.2030
  1.2047   1.2073   1.2099   1.2115   1.2124   1.2148   1.2172   1.2182
  1.2201   1.2242   1.2265   1.2289   1.2329   1.2345   1.2356   1.2368
  1.2376   1.2397   1.2425   1.2448   1.2455   1.2482   1.2493   1.2505
  1.2532   1.2541   1.2568   1.2584   1.2628   1.2645   1.2651   1.2675
  1.2691   1.2707   1.2722   1.2726   1.2771   1.2792   1.2814   1.2826
  1.2831   1.2855   1.2862   1.2882   1.2884   1.2908   1.2938   1.2948
  1.2968   1.2989   1.2994   1.3027   1.3041   1.3045   1.3071   1.3081
  1.3093   1.3100   1.3115   1.3157   1.3173   1.3194   1.3200   1.3215
  1.3224   1.3232   1.3245   1.3270   1.3280   1.3311   1.3335   1.3340
  1.3345   1.3352   1.3368   1.3384   1.3416   1.3444   1.3455   1.3463
  1.3494   1.3513   1.3528   1.3533   1.3541   1.3565   1.3602   1.3619
  1.3656   1.3661   1.3684   1.3697   1.3726   1.3741   1.3753   1.3761
  1.3798   1.3812   1.3842   1.3856   1.3867   1.3889   1.3933   1.3947
  1.3962   1.3990   1.4024   1.4051   1.4072   1.4095   1.4113   1.4120
  1.4131   1.4162   1.4195   1.4202   1.4207   1.4238   1.4253   1.4263
  1.4283   1.4330   1.4335   1.4371   1.4389   1.4396   1.4411   1.4435
  1.4445   1.4481   1.4495   1.4518   1.4523   1.4536   1.4565   1.4595
  1.4600   1.4631   1.4650   1.4696   1.4702   1.4749   1.4774   1.4791
  1.4813   1.4835   1.4847   1.4852   1.4917   1.4920   1.4946   1.4968
  1.5011   1.5023   1.5048   1.5083   1.5087   1.5106   1.5135   1.5152
  1.5189   1.5206   1.5270   1.5275   1.5307   1.5330   1.5337   1.5398
  1.5411   1.5431   1.5435   1.5507   1.5518   1.5529   1.5566   1.5577
  1.5601   1.5605   1.5639   1.5700   1.5710   1.5750   1.5773   1.5807
  1.5819   1.5875   1.5889   1.5902   1.5951   1.6000   1.6030   1.6054
  1.6080   1.6110   1.6151   1.6206   1.6208   1.6246   1.6273   1.6291
  1.6332   1.6344   1.6369   1.6381   1.6415   1.6451   1.6491   1.6494
  1.6551   1.6603   1.6631   1.6654   1.6682   1.6693   1.6754   1.6762
  1.6776   1.6789   1.6827   1.6841   1.6872   1.6891   1.6922   1.6954
  1.6987   1.7000   1.7017   1.7050   1.7063   1.7082   1.7105   1.7117
  1.7145   1.7167   1.7193   1.7204   1.7225   1.7255   1.7271   1.7274
  1.7293   1.7296   1.7319   1.7325   1.7346   1.7372   1.7380   1.7416
  1.7441   1.7457   1.7472   1.7500   1.7522   1.7567   1.7575   1.7587
  1.7598   1.7631   1.7654   1.7686   1.7691   1.7732   1.7751   1.7772
  1.7785   1.7818   1.7825   1.7843   1.7859   1.7870   1.7879   1.7892
  1.7923   1.7937   1.7953   1.7986   1.8013   1.8038   1.8049   1.8058
  1.8078   1.8093   1.8105   1.8115   1.8135   1.8144   1.8153   1.8180
  1.8195   1.8225   1.8239   1.8257   1.8284   1.8309   1.8318   1.8336
  1.8370   1.8389   1.8404   1.8442   1.8457   1.8472   1.8479   1.8513
  1.8522   1.8535   1.8555   1.8592   1.8604   1.8627   1.8647   1.8674
  1.8690   1.8694   1.8699   1.8728   1.8742   1.8773   1.8781   1.8808
  1.8815   1.8829   1.8832   1.8866   1.8877   1.8891   1.8929   1.8934
  1.8944   1.8968   1.8984   1.9011   1.9019   1.9044   1.9063   1.9085
  1.9106   1.9111   1.9142   1.9161   1.9195   1.9208   1.9251   1.9254
  1.9278   1.9313   1.9331   1.9338   1.9350   1.9393   1.9410   1.9430
  1.9443   1.9461   1.9492   1.9522   1.9554   1.9562   1.9586   1.9618
  1.9628   1.9637   1.9668   1.9677   1.9687   1.9697   1.9740   1.9762
  1.9776   1.9792   1.9827   1.9830   1.9847   1.9854   1.9877   1.9894
  1.9905   1.9937   1.9973   1.9985   2.0017   2.0049   2.0065   2.0092
  2.0111   2.0129   2.0149   2.0169   2.0217   2.0229   2.0269   2.0297
  2.0339   2.0356   2.0368   2.0382   2.0398   2.0412   2.0450   2.0457
  2.0474   2.0483   2.0500   2.0527   2.0550   2.0552   2.0612   2.0648
  2.0678   2.0692   2.0706   2.0723   2.0735   2.0789   2.0798   2.0823
  2.0862   2.0893   2.0917   2.0949   2.0980   2.1004   2.1047   2.1066
  2.1083   2.1113   2.1128   2.1145   2.1172   2.1189   2.1223   2.1251
  2.1287   2.1320   2.1345   2.1370   2.1382   2.1405   2.1420   2.1459
  2.1461   2.1518   2.1524   2.1558   2.1578   2.1608   2.1648   2.1667
  2.1683   2.1710   2.1728   2.1748   2.1779   2.1784   2.1839   2.1847
  2.1885   2.1903   2.1925   2.1965   2.1975   2.2000   2.2017   2.2032
  2.2077   2.2096   2.2108   2.2127   2.2143   2.2152   2.2167   2.2210
  2.2243   2.2253   2.2281   2.2299   2.2325   2.2342   2.2350   2.2392
  2.2436   2.2460   2.2501   2.2513   2.2518   2.2550   2.2579   2.2641
  2.2674   2.2682   2.2710   2.2724   2.2763   2.2784   2.2795   2.2831
  2.2841   2.2871   2.2912   2.2942   2.2994   2.3021   2.3054   2.3096
  2.3110   2.3148   2.3194   2.3225   2.3277   2.3287   2.3367   2.3405
  2.3431   2.3452   2.3468   2.3503   2.3521   2.3566   2.3584   2.3618
  2.3657   2.3722   2.3751   2.3808   2.3832   2.3852   2.3868   2.3924
  2.3988   2.4044   2.4051   2.4092   2.4106   2.4117   2.4155   2.4171
  2.4200   2.4248   2.4251   2.4276   2.4299   2.4331   2.4370   2.4420
  2.4438   2.4469   2.4531   2.4564   2.4601   2.4609   2.4628   2.4660
  2.4728   2.4749   2.4776   2.4835   2.4866   2.4937   2.4953   2.5012
  2.5024   2.5069   2.5110   2.5123   2.5150   2.5177   2.5218   2.5251
  2.5301   2.5324   2.5426   2.5500   2.5547   2.5569   2.5620   2.5630
  2.5652   2.5655   2.5684   2.5722   2.5770   2.5870   2.5927   2.5937
  2.5960   2.6010   2.6033   2.6084   2.6119   2.6153   2.6165   2.6191
  2.6226   2.6248   2.6292   2.6343   2.6398   2.6432   2.6471   2.6504
  2.6541   2.6562   2.6615   2.6666   2.6682   2.6705   2.6722   2.6800
  2.6877   2.6904   2.6967   2.7023   2.7050   2.7130   2.7155   2.7208
  2.7225   2.7273   2.7288   2.7332   2.7436   2.7459   2.7499   2.7559
  2.7622   2.7630   2.7718   2.7739   2.7778   2.7805   2.7850   2.7906
  2.7936   2.7943   2.7996   2.8077   2.8171   2.8206   2.8238   2.8278
  2.8333   2.8343   2.8383   2.8386   2.8441   2.8471   2.8479   2.8521
  2.8616   2.8669   2.8713   2.8717   2.8777   2.8779   2.8843   2.8890
  2.8970   2.9170   2.9225   2.9254   2.9307   2.9342   2.9376   2.9388
  2.9396   2.9468   2.9513   2.9581   2.9610   2.9677   2.9728   2.9839
  2.9857   2.9910   2.9949   3.0013   3.0075   3.0084   3.0156   3.0166
  3.0209   3.0262   3.0324   3.0378   3.0482   3.0546   3.0666   3.0773
  3.0874   3.1164   3.1289   3.1356   3.1550   3.1726   3.1794   3.1961
  3.2032   3.2074   3.2122   3.2204   3.2366   3.2669   3.2722   3.2828
  3.3036   3.3347   3.3528   3.3572   3.4045   3.4097   3.4333
 --------------------------------------------------------------
 
          Ground-State Mulliken Net Atomic Charges

     Atom                 Charge (a.u.)
  ----------------------------------------
      1 C                    -0.340805
      2 C                    -0.631336
      3 C                    -0.026551
      4 C                    -0.292399
      5 C                     2.114950
      6 C                    -0.278330
      7 C                    -0.031116
      8 N                    -0.402620
      9 C                    -0.153195
     10 C                    -1.294266
     11 C                    -0.150359
     12 C                    -0.270190
     13 C                     0.008518
     14 C                     0.515076
     15 C                     0.918992
     16 N                     0.128883
     17 C                    -1.482393
     18 C                    -0.577116
     19 H                     0.209097
     20 H                     0.202772
     21 H                     0.219978
     22 H                     0.246087
     23 H                     0.250091
     24 H                     0.490631
     25 H                     0.242826
     26 H                     0.204387
     27 H                     0.193788
     28 H                     0.208141
     29 H                     0.257204
     30 H                     0.245299
     31 H                     0.273956
     32 H                     0.529686
     33 O                    -0.918162
     34 P                     1.844229
     35 O                    -0.971564
     36 O                    -0.937865
     37 O                    -0.671318
     38 C                    -0.594942
     39 C                     0.658799
     40 O                    -0.260029
     41 C                    -0.547003
     42 O                    -0.670342
     43 C                     0.346981
     44 C                    -1.041577
     45 N                     0.216669
     46 C                     0.513845
     47 N                    -0.347495
     48 C                    -0.870819
     49 C                     0.402176
     50 O                    -0.671727
     51 N                    -0.548065
     52 C                     0.580508
     53 N                    -0.817210
     54 N                    -0.422832
     55 C                     0.118527
     56 H                     0.235770
     57 H                     0.222774
     58 H                     0.218655
     59 H                     0.233223
     60 H                     0.248188
     61 H                     0.281481
     62 H                     0.242902
     63 H                     0.248747
     64 H                     0.486882
     65 H                     0.441427
     66 H                     0.505367
     67 P                     2.025146
     68 O                    -0.948160
     69 O                    -0.920913
     70 O                    -0.603613
     71 C                    -0.255284
     72 C                    -0.001914
     73 O                    -0.286933
     74 C                    -0.263190
     75 O                    -0.646654
     76 C                    -0.051579
     77 C                    -0.491455
     78 N                     0.174291
     79 C                     0.262448
     80 O                    -0.637596
     81 N                    -0.350371
     82 C                     1.064766
     83 N                    -0.869028
     84 C                    -1.362309
     85 C                     0.272999
     86 H                     0.242693
     87 H                     0.233990
     88 H                     0.218742
     89 H                     0.241299
     90 H                     0.248329
     91 H                     0.248208
     92 H                     0.235542
     93 H                     0.243427
     94 H                     0.224860
     95 H                     0.487697
     96 H                     0.452877
     97 H                     0.515791
     98 H                     0.524789
     99 O                    -0.903499
    100 P                     1.895673
    101 O                    -0.910782
    102 O                    -0.981890
    103 O                    -0.707631
    104 C                    -0.645948
    105 C                     0.737918
    106 O                    -0.260120
    107 C                    -0.595770
    108 O                    -0.674683
    109 C                     0.376492
    110 C                    -1.053048
    111 N                     0.220391
    112 C                     0.535191
    113 N                    -0.377031
    114 C                    -0.802880
    115 C                     0.474710
    116 O                    -0.673761
    117 N                    -0.542639
    118 C                     0.581129
    119 N                    -0.821308
    120 N                    -0.422031
    121 C                    -0.051773
    122 H                     0.235712
    123 H                     0.222269
    124 H                     0.217834
    125 H                     0.231035
    126 H                     0.253442
    127 H                     0.278744
    128 H                     0.240168
    129 H                     0.248936
    130 H                     0.487835
    131 H                     0.442221
    132 H                     0.504498
    133 P                     1.996137
    134 O                    -0.950322
    135 O                    -0.917255
    136 O                    -0.592973
    137 C                    -0.139990
    138 C                    -0.268193
    139 O                    -0.285997
    140 C                     0.089973
    141 O                    -0.731534
    142 C                    -0.453463
    143 C                    -0.141310
    144 N                     0.177398
    145 C                     0.306964
    146 O                    -0.643654
    147 N                    -0.348055
    148 C                     0.911463
    149 N                    -0.860910
    150 C                    -1.284436
    151 C                     0.277432
    152 H                     0.243600
    153 H                     0.232542
    154 H                     0.215912
    155 H                     0.237842
    156 H                     0.244689
    157 H                     0.246965
    158 H                     0.230478
    159 H                     0.240596
    160 H                     0.224692
    161 H                     0.490641
    162 H                     0.449754
    163 H                     0.526824
  ----------------------------------------
  Sum of atomic charges =    -3.000000

 -----------------------------------------------------------------
                    Cartesian Multipole Moments
 -----------------------------------------------------------------
    Charge (ESU x 10^10)
               -14.4096
    Dipole Moment (Debye)
         X     -15.3780      Y       9.7389      Z     -30.2996
       Tot      35.3468
    Quadrupole Moments (Debye-Ang)
        XX   -1720.9045     XY     277.7045     YY    -721.0012
        XZ      44.2596     YZ      15.4804     ZZ    -847.2916
    Octopole Moments (Debye-Ang^2)
       XXX   -4683.9628    XXY    1641.3901    XYY   -1109.0502
       YYY    1418.2746    XXZ   -1876.6604    XYZ     873.2674
       YYZ    -665.7903    XZZ    -510.1801    YZZ     276.2535
       ZZZ   -1541.8318
    Hexadecapole Moments (Debye-Ang^3)
      XXXX -214083.2278   XXXY   29050.6311   XXYY  -28371.4395
      XYYY   13790.5135   YYYY  -31103.4983   XXXZ    -782.0430
      XXYZ    4105.7980   XYYZ   -1594.4389   YYYZ    1229.1730
      XXZZ  -37331.7232   XYZZ    8466.9685   YYZZ  -10469.7330
      XZZZ    4003.5367   YZZZ    -304.7893   ZZZZ  -29796.9093
 -----------------------------------------------------------------
 Total job time:  73040.71s(wall), 49825.70s(cpu) 
 Sat Feb  8 16:00:32 2025

        *************************************************************
        *                                                           *
        *  Thank you very much for using Q-Chem.  Have a nice day.  *
        *                                                           *
        *************************************************************


