91
Lattice="28.339598266923204 0.0 0.0 0.0 35.36013153141552 0.0 0.0 0.0 33.53634250314411" Properties=species:S:1:pos:R:3:forces:R:3 energy=-12182.581159489151 free_energy=-12182.581159489151 pbc="F F F"
N       17.85215576      13.69930156      13.86436258      -0.00823987       0.00736570      -0.02048192
C       18.02416663      14.90357115      13.18767789      -0.01184045      -0.01417964       0.00259424
N       17.77631118      15.95715841      13.94270475       0.02241436       0.01448765      -0.00154266
C       17.42868501      15.42112708      15.18032960       0.03791863       0.01113802       0.06425907
C       17.08347406      16.02198560      16.41290283       0.02589872      -0.00868724      -0.01492320
N       17.00445239      17.36494503      16.59293150       0.00674555      -0.03106047      -0.00161928
N       16.80796787      15.20159983      17.45590296      -0.00768863      -0.02407581      -0.01143730
C       16.90190023      13.85929880      17.30022937      -0.00546359       0.00016352      -0.00649306
N       17.22154050      13.18461930      16.18479424      -0.02045570       0.00382940       0.02061202
C       17.47211262      14.01660870      15.15862998       0.02168211       0.01208676      -0.01086240
H       18.33850147      14.93195173      12.15279567      -0.01802652       0.00467992      -0.00678463
H       17.28960555      17.97509393      15.83861675      -0.00690855      -0.01864513       0.01184147
H       16.71011495      17.76010638      17.49374626       0.00066540      -0.00627144      -0.01297327
H       16.68124253      13.27936443      18.19182744       0.01677851      -0.00122179      -0.00490309
H       17.98584943      12.76299888      13.49945284       0.01392870       0.00465370       0.00499977
N       16.01793857      15.84611126      22.26789974      -0.00872787       0.00839825       0.01833917
C       16.14195295      15.29751571      20.98351399       0.04752067      -0.02414883       0.03782093
O       16.30949909      14.10014941      20.78075140       0.06660752       0.01730918       0.00454263
N       16.07623332      16.24759690      19.97225604       0.00360109       0.05804729      -0.04990152
C       15.86592155      17.61503548      20.12148100      -0.02186466       0.01532943      -0.03067223
O       15.82724707      18.36168703      19.11075132      -0.01383202      -0.05251530      -0.04878206
C       15.69149412      18.09254549      21.48901743      -0.02752469       0.00611768      -0.02474018
C       15.42955674      19.55690809      21.72502709      -0.00690753       0.00295266      -0.00903691
C       15.77817627      17.17975185      22.49501735      -0.02502506       0.02301343       0.01368547
H       15.66952807      17.46184270      23.53763583      -0.01967974      -0.01031012       0.00427780
H       16.25788918      20.17363594      21.35720228      -0.01338516      -0.01316713      -0.01624937
H       15.29017938      19.76560719      22.79033836       0.00000771       0.01260509      -0.00798276
H       14.52894654      19.87829025      21.18760714      -0.00977328       0.01031012      -0.00789072
H       16.26668131      15.87205863      19.00614711       0.01887807      -0.01911050       0.01242151
H       15.97548985      15.17097200      23.02472404       0.01593004       0.02028703      -0.02225598
N       14.33423455      10.92227409      16.17934732       0.02247916       0.00285752      -0.00087366
C       14.19435074      11.35962821      14.86832737       0.01363456       0.02244933      -0.01282055
N       13.87887170      12.63936334      14.77916275       0.01036000       0.00000566      -0.01326638
C       13.81717662      13.06831053      16.10319260       0.02044284      -0.00867593       0.00659591
C       13.54377644      14.31871404      16.68382420       0.04381314       0.01863741       0.00727828
N       13.25617474      15.44218578      15.94345936      -0.00265029       0.00635577      -0.02152991
N       13.60829682      14.42178493      18.03343368       0.02517419      -0.02363101      -0.01445989
C       13.90375724      13.32460203      18.77860079      -0.01528007       0.01725827       0.04916772
N       14.15758267      12.08815723      18.33116295      -0.02436532      -0.01013632       0.01356463
C       14.10523017      12.01720086      16.99240268       0.00624984      -0.01112105      -0.02538142
H       14.33150068      10.68863760      14.03052198      -0.00715024       0.00343808       0.00193398
H       12.92734640      15.26409592      14.99967527       0.01506718       0.00762692       0.00599324
H       12.79113590      16.20917371      16.44268418      -0.00831495       0.00741918       0.02096169
H       13.94727396      13.48751384      19.85234131      -0.00694506      -0.00262870      -0.05803854
H       14.61506240      10.00095223      16.49745653      -0.00774416       0.01172475      -0.01504558
N       11.92836440      17.49838281      21.46837053      -0.01837362       0.02547346      -0.01397086
C       12.65205353      16.48612865      20.82008216      -0.01254493      -0.01136788       0.01176485
O       13.14233888      15.53524722      21.42393761      -0.03458648      -0.01480390       0.01807640
N       12.76212234      16.67683658      19.45064649       0.00638251       0.00176635      -0.00917318
C       12.20699480      17.71797034      18.70903550       0.02239122      -0.00147376       0.05336376
O       12.37522591      17.76330831      17.46922623       0.01346693      -0.01810571       0.02388658
C       11.44320220      18.71535004      19.45638199       0.01901588       0.00943029       0.02779568
C       10.78698571      19.84010976      18.70138995      -0.00287552       0.02254138      -0.01817616
C       11.33168003      18.55026792      20.80156224      -0.00228674       0.03460705       0.00684171
H       10.75949735      19.23192496      21.42490843       0.04009893      -0.00523631      -0.01408810
H       11.51052962      20.34973332      18.05902198      -0.01449897       0.01306378      -0.00203734
H       10.34561459      20.57548380      19.38082898      -0.00863839      -0.01360628      -0.00016661
H        9.99950079      19.45867567      18.04174525      -0.01334300      -0.00561632      -0.01492320
H       13.19854022      15.87383229      18.90910287      -0.02108356       0.00217310       0.01669777
H       11.80838684      17.37800469      22.46857190       0.00233405      -0.00313777      -0.01328849
C       13.21951134      23.67541993      15.48462725       0.00398984      -0.00698774       0.01449897
C       13.01258829      24.32148733      16.69170091       0.00247597      -0.00463467       0.00712401
C       13.19734259      23.65040100      17.92255245      -0.00027665      -0.02229352      -0.02649368
C       13.57042996      22.32412017      17.92602063       0.00824707      -0.03273220      -0.03247561
C       13.77341976      21.61236751      16.70786290       0.01371478      -0.00629406       0.06172602
C       14.09906786      20.23434246      16.71897294       0.00657791       0.01763880      -0.02219376
C       14.19728864      19.58636539      15.50959473       0.00346842      -0.03331430      -0.01145735
N       14.44869524      18.26202256      15.23158114      -0.00869084       0.01858959      -0.01088965
C       14.48527585      18.07224191      13.86238152      -0.00301025       0.01477665      -0.01553872
C       14.70957518      16.88843440      13.15224808       0.00698877      -0.02548529       0.03623867
C       14.68025930      16.95618298      11.76497713      -0.01604471      -0.00229291      -0.03025212
C       14.42845790      18.17128653      11.08596590      -0.00948274      -0.00323599       0.01346744
C       14.21635549      19.34974592      11.78531004      -0.00112563       0.02228221      -0.01553923
C       14.25366039      19.32783769      13.20139864      -0.00814423       0.01966020       0.01385568
C       14.07533658      20.28774932      14.25716511      -0.00455959      -0.00449532      -0.00646890
N       13.85132866      21.63617183      14.25701604       0.00259013      -0.00416673       0.00781204
C       13.61580059      22.31732172      15.46159688       0.01291619      -0.01816022      -0.02350194
C       13.90939543      22.36644435      12.96336291      -0.00316657       0.00126704      -0.00402995
H       13.04306218      24.22030863      14.56656483      -0.00049828      -0.00398521      -0.00289712
H       12.69604782      25.35966203      16.68661589      -0.00217155       0.00039646       0.00339026
H       13.03040715      24.17745970      18.85621279       0.01587605       0.00389471       0.00018872
H       13.70082987      21.78313897      18.85910444       0.00908525       0.01407833      -0.01506307
H       14.25775697      19.70662164      17.65290518       0.00988846      -0.04162411       0.02582879
H       14.50178593      17.52372749      15.92561140       0.00627915      -0.02173559      -0.00938144
H       14.91944067      15.96155617      13.67258317      -0.01446091       0.01959386      -0.00413485
H       14.85233950      16.05331335      11.18736851       0.00425672      -0.00290278       0.00619944
H       14.40079487      18.17994182      10.00109609      -0.00151644       0.00149690       0.01101821
H       14.01457813      20.26125665      11.23804432      -0.01004890       0.00541217      -0.00417444
H       14.70112981      21.92639392      12.35823796      -0.00974860       0.00815143      -0.00114414
H       12.95261293      22.29587726      12.43836313      -0.00317480       0.00411171       0.00873352
H       14.16181279      23.40899752      13.13682485       0.00133132       0.00659951       0.00259887
91
Lattice="28.339598266923204 0.0 0.0 0.0 35.36013153141552 0.0 0.0 0.0 33.53634250314411" Properties=species:S:1:pos:R:3:forces:R:3 energy=-12182.596468766325 pbc="F F F"
N       18.16677309      13.94539119      13.26715282      -0.00780998       0.03956157      -0.01064437
C       18.64910817      15.12147028      12.69654881      -0.00140228      -0.00857720      -0.02896297
N       18.58393818      16.15486463      13.51354221      -0.01973270      -0.00871244       0.00003908
C       18.03808148      15.63618136      14.68386407       0.01267811      -0.01219937      -0.00055022
C       17.69140892      16.23953114      15.91452425       0.01440692      -0.01644581      -0.03260519
N       17.86474924      17.55463712      16.17962937       0.00358669       0.01935012      -0.00375535
N       17.11965580      15.44275437      16.85993906       0.00943029      -0.02512225      -0.01447120
C       16.95127780      14.11737900      16.61584579       0.02184358       0.02246373      -0.00905183
N       17.22928123      13.45150523      15.48579538       0.02052769       0.01140696      -0.00640513
C       17.76936592      14.26277827      14.55561766       0.02709686       0.00830158      -0.01750356
H       19.02654868      15.14376007      11.68365380       0.01855308       0.00914644      -0.02062436
H       18.36083601      18.12907040      15.51080077      -0.02036057      -0.01251870       0.00283541
H       17.56710552      17.93934528      17.08364407       0.00124956       0.00601587      -0.00527950
H       16.54949724      13.54408374      17.44487818       0.00676406       0.00475551      -0.01705104
H       18.14375767      13.01987958      12.85403364       0.01153705       0.00733073      -0.01875414
N       16.16129842      15.82380493      21.74290444       0.00420941       0.04645521      -0.02697807
C       16.42938368      15.30861354      20.46530921      -0.02625302       0.01780283       0.00597627
O       16.49019466      14.10781944      20.22483433      -0.00243329       0.02205287      -0.00163008
N       16.61972725      16.30151478      19.50738679      -0.01410045       0.00115905       0.00044326
C       16.52838795      17.67750879      19.69820823      -0.00294803      -0.01816844       0.00589091
O       16.71481125      18.45252624      18.72896901      -0.01562202       0.02373077       0.04736024
C       16.19955417      18.12488583      21.04875285       0.00899475       0.03194802      -0.01445371
C       16.08413154      19.60529325      21.31304186      -0.00535767      -0.01074207      -0.00056153
C       16.02809867      17.17183841      22.00636889       0.02562619      -0.05149663       0.04568388
H       15.77858589      17.41926427      23.03384058       0.02884727       0.00592125      -0.01114779
H       16.96099266      20.13858710      20.93005871      -0.00379135      -0.02568069       0.00512369
H       15.98816913      19.81505098      22.38245446      -0.01261280      -0.01174480       0.00141668
H       15.21350592      20.03294714      20.80093106      -0.00759093       0.00129789      -0.00381860
H       16.82872293      15.96904633      18.53154109      -0.01591307      -0.01078372      -0.00192936
H       15.98948856      15.12964100      22.46242810      -0.04711136       0.00397801      -0.00145730
N       14.38692144      10.96052803      15.53693808       0.00899475      -0.01041400       0.00318405
C       13.94442565      11.25554158      14.25414206       0.01487538      -0.00493858      -0.03183489
N       13.39455799      12.45289074      14.15881672       0.01718680       0.00564151       0.03360843
C       13.48813458      12.97198262      15.44801157      -0.00522860      -0.00541577       0.00040778
C       13.06076885      14.19597785      16.00515640      -0.02582159      -0.00200546       0.00549291
N       12.37142498      15.12592564      15.30212741       0.02233106      -0.00198181       0.02348343
N       13.37666164      14.43608269      17.30910900      -0.02317798       0.04158863       0.04289526
C       13.98717392      13.46582098      18.04254183      -0.03466053       0.00636091       0.00870936
N       14.36860136      12.25147246      17.62897509      -0.03672873       0.02039296      -0.02148363
C       14.10804352      12.06424345      16.32189083       0.00294494       0.01971162      -0.02029989
H       14.05114647      10.55157093      13.44035695       0.00605186      -0.02331734      -0.00991469
H       12.11246090      14.91690473      14.34732000      -0.01169235       0.01494120       0.00338409
H       12.05569095      15.99103731      15.75270909       0.02512585      -0.00295214      -0.01401868
H       14.19207014      13.72544017      19.07802801      -0.00169950      -0.01721508      -0.01825483
H       14.86228174      10.12120514      15.84862930       0.01233307      -0.01223382      -0.00287192
N       11.75398173      17.58719287      20.79761474       0.03627570       0.01906833      -0.01414313
C       12.42143401      16.53711003      20.14541027       0.01710812      -0.03207451       0.00202500
O       13.01416910      15.64777693      20.75533710      -0.07108895      -0.00026328       0.03345880
N       12.34439661      16.62315163      18.75760570       0.03855832       0.00443978       0.01076521
C       11.70333269      17.61991872      18.00972613       0.01549347       0.00173035       0.02946227
O       11.70569615      17.56598647      16.76234037       0.00470975      -0.01113493       0.02130468
C       11.08425296      18.70298676      18.77272426       0.00324216      -0.00198592       0.01913415
C       10.40997871      19.82307659      18.02495826      -0.00092611      -0.00362474      -0.00215613
C       11.12877171      18.62526074      20.12899347      -0.00820182       0.00756573       0.02715702
H       10.67280878      19.37732524      20.76515403      -0.00891402      -0.00546308       0.01188775
H       11.12180325      20.33849351      17.37108675       0.00852269      -0.00598141      -0.00446086
H        9.97943108      20.55665792      18.71296210      -0.00037332      -0.00106855      -0.00473906
H        9.61247927      19.43448292      17.38244453       0.00207745      -0.00458736      -0.00462027
H       12.75972239      15.81249133      18.21656029       0.02613887      -0.01025973       0.00062735
H       11.73986170      17.53572426      21.81063557       0.02443062       0.01022168      -0.00570836
C       13.50441329      22.63476049      15.68967759      -0.00175761      -0.00696358       0.00941641
C       13.27943804      23.27333614      16.89845957       0.00685662       0.01728707      -0.00201729
C       13.44977366      22.59569122      18.12646808       0.00860394      -0.00800179      -0.01352966
C       13.81595470      21.26923717      18.12232579       0.00913616       0.00021803       0.00534944
C       14.04382713      20.56770033      16.90640904      -0.01639644       0.01784706       0.01658876
C       14.36717644      19.19276160      16.91172485       0.00538183      -0.01817410       0.00858389
C       14.51061510      18.55023436      15.70835692      -0.00190467       0.00176943       0.01794476
N       14.74535413      17.22170207      15.43362780       0.00730913      -0.01299847       0.00112614
C       14.78778041      17.03367714      14.06238600       0.01357645       0.07865725      -0.03093449
C       14.94403586      15.84140677      13.34800979       0.00086440      -0.00793237       0.02154173
C       14.90029045      15.91352105      11.96079076      -0.00127218       0.00666687      -0.00532630
C       14.69323075      17.13989568      11.28687189       0.00882814      -0.01098170      -0.00387928
C       14.52963083      18.32294847      11.99034735       0.00027254       0.01499005      -0.00494115
C       14.58384981      18.29517784      13.40506186      -0.01063100       0.02511505       0.00339488
C       14.40862001      19.25678860      14.45976990       0.00718829      -0.05068725       0.00092405
N       14.17316254      20.60297699      14.46230802      -0.01423260       0.09322718      -0.00100067
C       13.91096147      21.27869058      15.66407101       0.00639691      -0.02759000      -0.01164041
C       14.22085414      21.35249205      13.17847773      -0.00852784      -0.03619239       0.00415182
H       13.33472768      23.18584696      14.77401771       0.01169081      -0.01214229      -0.00616653
H       12.96216111      24.31137284      16.89902679      -0.00253511      -0.00121202      -0.02310034
H       13.28682169      23.11566495      19.06485637      -0.02536342       0.01693894      -0.01646329
H       13.92901776      20.71774640      19.04886706       0.00693221       0.00940047       0.02851251
H       14.48762604      18.66496594      17.84731415       0.00880294      -0.01597786       0.02839989
H       14.86729207      16.49565478      16.13346179      -0.01358674      -0.00647610      -0.00046897
H       15.07214962      14.89239139      13.85494396      -0.00351830       0.01806817       0.03119931
H       15.00443309      15.00208128      11.38074450       0.00704997      -0.00978819       0.01185279
H       14.64825619      17.15160153      10.20292202       0.00214481      -0.00342728      -0.00125316
H       14.34390103      19.24163131      11.44913944      -0.00417701      -0.00467169      -0.00585697
H       14.97896972      20.90182959      12.54093804      -0.00204300      -0.00908577       0.00322879
H       13.24564834      21.32506432      12.68426521       0.00403458       0.00100890      -0.01400017
H       14.51274292      22.38297093      13.36714953       0.00683811      -0.00887699      -0.00922101
91
Lattice="28.339598266923204 0.0 0.0 0.0 35.36013153141552 0.0 0.0 0.0 33.53634250314411" Properties=species:S:1:pos:R:3:forces:R:3 energy=-12182.551225852443 pbc="F F F"
N       18.72894070      14.10000653      12.93463948       0.00109066       0.00605649      -0.01425163
C       18.86344717      15.29634058      12.23533093       0.01920974       0.00656197       0.01668183
N       18.69234311      16.35908346      12.99860845       0.01107477      -0.00110866       0.00288375
C       18.43954633      15.83727356      14.26491599       0.00958404       0.00453131      -0.00611151
C       18.12512950      16.45187814      15.49781419      -0.00190930       0.00213504       0.00097702
N       17.99754203      17.79461505      15.64746899      -0.00592022       0.00036870      -0.00501828
N       17.87692456      15.63762985      16.55869972      -0.00999954       0.00125778      -0.01639284
C       17.92411491      14.29084954      16.40566494      -0.01065568       0.00182754      -0.01406856
N       18.19318894      13.60729371      15.28264585      -0.02687934       0.00867079      -0.01713846
C       18.45342226      14.43215383      14.24993799      -0.01752053      -0.00242455       0.01018208
H       19.09669795      15.31101981      11.17926128      -0.01264006       0.01036309      -0.01095239
H       18.31792879      18.39003248      14.89423167       0.00983704      -0.00683759       0.01816227
H       17.83206341      18.19594459      16.57809162       0.01167127      -0.00558958       0.01323707
H       17.70350854      13.71877648      17.30497714       0.00839362       0.00932282      -0.01491086
H       18.83792221      13.15951701      12.57113172       0.01096473       0.00812469       0.00846973
N       16.61331089      16.09028066      21.30468017      -0.00689313      -0.01562717      -0.00398572
C       16.91595254      15.59346531      20.02751748      -0.00204866       0.00738215      -0.00237261
O       16.96663478      14.39486086      19.76470521      -0.00091840      -0.00368336      -0.00521111
N       17.13971929      16.60164533      19.09440914      -0.01407988      -0.01905445      -0.00415387
C       17.11358553      17.98216494      19.31717573      -0.00905851      -0.01137096       0.01229759
O       17.30604039      18.76712737      18.36401057      -0.00056564       0.00164448      -0.01108300
C       16.81793414      18.40888728      20.68519916       0.00118014       0.00174115      -0.00077287
C       16.82470961      19.88476299      21.00361856       0.00618145       0.02158801      -0.02797258
C       16.57738234      17.43774173      21.60955701       0.00783775       0.00570271      -0.00983550
H       16.35066702      17.66870646      22.64593087      -0.00295934       0.00742946      -0.00678926
H       17.82667297      20.30668401      20.86535417       0.00394510      -0.00339746       0.00125418
H       16.50743769      20.07128851      22.03419934       0.01400171      -0.00277422      -0.00464598
H       16.16285648      20.43330849      20.32484382       0.01519111       0.00316863       0.00080733
H       17.42302446      16.26601997      18.13408170      -0.01291054      -0.00022060       0.00055947
H       16.41917023      15.38733585      22.01072686      -0.00484087       0.01451182       0.00361754
N       13.79464761      10.84626663      14.97966701      -0.00030905       0.00084332       0.00099193
C       13.43499080      11.17859760      13.67772373      -0.00111843      -0.00433179      -0.00857206
N       12.93747225      12.39687213      13.57487397      -0.01135811      -0.00133903      -0.00136423
C       12.96125738      12.88950869      14.87657261       0.00784187       0.00426700       0.01011215
C       12.56965608      14.13166878      15.42554480       0.00941024      -0.00568214       0.00156580
N       12.03424872      15.13591281      14.69536741      -0.02130879      -0.01548010       0.00510004
N       12.78810216      14.32080847      16.75823187       0.01660727       0.01953781      -0.00125264
C       13.32082798      13.31748348      17.50661338       0.01298716      -0.00688130      -0.01256704
N       13.70108598      12.10317527      17.09089879       0.00828769       0.01828980       0.01555106
C       13.49967350      11.94588435      15.76884767       0.02196648       0.00131281      -0.01606168
H       13.55843417      10.48226877      12.85907447       0.01332911      -0.00792671      -0.00269452
H       11.85516921      14.98479087      13.71133851       0.01476328       0.00410400       0.01057803
H       11.79066553      16.02864677      15.13632556      -0.01627303      -0.00240912       0.00541063
H       13.44987160      13.55317202      18.56085843      -0.01154065      -0.02090410      -0.00074356
H       14.20310497       9.97649023      15.30413509      -0.00387877      -0.00314446       0.01040680
N       11.37136907      17.61598734      20.18584227      -0.01739557      -0.00779918       0.00694095
C       11.95261305      16.51687511      19.53536227      -0.01173349       0.00609609       0.01227085
O       12.47488445      15.58612341      20.14586093       0.00253871      -0.00352961      -0.02109590
N       11.89246898      16.60590829      18.14881462       0.00161002       0.04407180      -0.01361194
C       11.38192564      17.67367967      17.39920207      -0.00317634       0.01397703      -0.00725205
O       11.46333947      17.65546511      16.15284375      -0.08627440       0.02436326       0.02831402
C       10.80302986      18.78233971      18.16293469       0.03306028      -0.02037188       0.00507999
C       10.25493930      19.95892831      17.40358386       0.01084954       0.01454833      -0.00079499
C       10.81205740      18.69254115      19.51747689       0.01745316       0.02705161       0.04355501
H       10.40968469      19.47337622      20.15447248      -0.03128981      -0.00105210       0.00121819
H       11.05551654      20.44780159      16.83776164      -0.00733124       0.02098586      -0.01872072
H        9.80625117      20.69517143      18.07636918      -0.00061912       0.00451331       0.00308841
H        9.50044757      19.63724981      16.67756143       0.00823164       0.00215818       0.00685765
H       12.25605454      15.76695222      17.61724761       0.00508153       0.00606729       0.00716464
H       11.36282539      17.56719128      21.19909884      -0.01352298      -0.00092971      -0.00158483
C       13.69150804      21.64415705      15.98660542       0.00237878      -0.00316657      -0.00105878
C       13.45071045      22.25538529      17.20584107       0.00765829      -0.00209853      -0.00074665
C       13.60353324      21.54801388      18.41918491       0.00023037       0.00482390       0.01068859
C       13.97129759      20.22098792      18.39239564      -0.00180697      -0.00364685       0.00541989
C       14.21375171      19.54984859      17.16460718      -0.00177612      -0.00498640       0.00808869
C       14.55418653      18.17859093      17.13915795       0.00040469      -0.00154780      -0.00022934
C       14.71032438      17.57242091      15.92018878       0.00430146      -0.00279068       0.00291769
N       14.99709925      16.26274848      15.60910822       0.00516020      -0.00236542      -0.00365405
C       15.05398002      16.11339756      14.23518654       0.05393815       0.03918721       0.01171343
C       15.28796435      14.94812628      13.50433161       0.00167173      -0.02692974      -0.00190005
C       15.23951000      15.03860105      12.11975066       0.00683348       0.01151186      -0.00287861
C       14.97142575      16.26546257      11.46978555       0.01568322      -0.00664270      -0.00470358
C       14.75980962      17.43029132      12.19241136       0.00784546       0.00889962       0.01086754
C       14.81162828      17.38036061      13.60729071       0.00054353      -0.01618561       0.00398007
C       14.60872339      18.30763689      14.68634530      -0.00526716      -0.00509901       0.00329718
N       14.37535617      19.65013305      14.72202029      -0.01623343      -0.00011159       0.00718572
C       14.09559208      20.28988157      15.93805572      -0.00419861      -0.00459096       0.00346019
C       14.46510030      20.43591080      13.46270469      -0.01471957      -0.01375129       0.00483213
H       13.53721957      22.21292864      15.07927857       0.00317686      -0.00290020      -0.00517100
H       13.13415800      23.29321599      17.22331256      -0.00763875       0.00429323      -0.00003702
H       13.42174258      22.05030518      19.36365509      -0.00470666      -0.00368285       0.00440121
H       14.07990632      19.65503636      19.31175501      -0.01164401      -0.01319027       0.00472723
H       14.65654123      17.62295819      18.06302837       0.00898652      -0.01889864      -0.00531807
H       15.02502494      15.50441959      16.27941326       0.01118481       0.00666173       0.01611053
H       15.48415258      14.00826728      14.00633323      -0.01834225       0.00424541       0.00422124
H       15.39031863      14.14345819      11.52552876       0.00730091       0.00066437      -0.00230782
H       14.92760625      16.29253399      10.38617951      -0.00678720       0.01079298      -0.00438579
H       14.53880762      18.34826016      11.66280427       0.00147067       0.00713944       0.01553615
H       15.20950579      19.97350108      12.81734877      -0.01018260      -0.01430356       0.00812880
H       13.49434505      20.46536526      12.95983062       0.00392659      -0.00048902      -0.00849595
H       14.79961571      21.44731678      13.68519628      -0.00530110      -0.01269405       0.00349310
91
Lattice="28.339598266923204 0.0 0.0 0.0 35.36013153141552 0.0 0.0 0.0 33.53634250314411" Properties=species:S:1:pos:R:3:forces:R:3 energy=-12182.779059316183 pbc="F F F"
N       19.23029120      14.35261154      12.42241282       0.00530470       0.00877723      -0.00486401
C       19.13087606      15.52855649      11.68400170       0.01360422       0.01202094      -0.01103055
N       18.81922909      16.57631045      12.42282879       0.00583281       0.00008999      -0.00224766