91
Lattice="26.295545419021675 0.0 0.0 0.0 36.90853783120437 0.0 0.0 0.0 34.5622988274239" Properties=species:S:1:pos:R:3:forces:R:3 energy=-12181.670476231126 free_energy=-12181.670476231126 pbc="F F F"
N       16.46339718      14.20442631      17.08350834      -0.00967712      -0.01111231      -0.01198031
C       16.21474971      15.34654272      16.33431642      -0.02421825      -0.00784495       0.00172932
N       15.91687872      16.39699523      17.07939130      -0.01484247      -0.00816531       0.00728856
C       15.97257616      15.91709211      18.38732205      -0.01525024      -0.01542713       0.00364017
C       15.73598911      16.53527970      19.63820786      -0.02882053      -0.01601900       0.01014403
N       15.40142847      17.83864576      19.77654209       0.00370599      -0.00748500      -0.00328073
N       15.85040255      15.75840561      20.74747742      -0.05723225      -0.00454365       0.01383305
C       16.15374844      14.44528439      20.62909461      -0.00195147       0.00610071       0.00692295
N       16.39710381      13.76047290      19.50074982       0.00637171       0.01062791       0.00172727
C       16.29936101      14.55186397      18.41507774      -0.00369725      -0.00797351      -0.00524299
H       16.27648579      15.34095659      15.25408682      -0.01164298      -0.00815657       0.00511238
H       15.24208328      18.38370718      18.94042179      -0.02159418      -0.00997280       0.01254750
H       15.12280839      18.21139008      20.69364777       0.02330757      -0.00207077      -0.00008536
H       16.17481111      13.89481384      21.56660314       0.02164201      -0.00864713      -0.00400629
H       16.65689890      13.27212504      16.73786497      -0.01415495      -0.00809023      -0.00247546
N       14.99225508      16.22840778      25.58354016       0.03499477      -0.03093192      -0.01140850
C       15.19928451      15.70953712      24.29585597      -0.06456658      -0.05112793      -0.03825185
O       15.40940939      14.51774732      24.09206770       0.03343566      -0.03019864      -0.03341406
N       15.14331668      16.67507622      23.29777660       0.01637330       0.01566830       0.00233662
C       14.85083609      18.02706441      23.46411202      -0.02728969       0.04019869      -0.00818794
O       14.75017121      18.78053379      22.47155980       0.01889350       0.00749528       0.00517409
C       14.66122885      18.48463859      24.84037102       0.03437977       0.02186826       0.00273411
C       14.40219152      19.94666692      25.09077379      -0.01157871       0.00722789       0.00292797
C       14.74136526      17.55932939      25.83175607      -0.00371987      -0.03948495       0.05797478
H       14.60428970      17.82095662      26.87629258       0.00143982      -0.00983910       0.02191403
H       15.24496036      20.56037677      24.75045249      -0.00829541      -0.01891561      -0.01378266
H       14.24356394      20.14113831      26.15666893      -0.01492885       0.01577680      -0.01268171
H       13.52375704      20.28823854      24.53114407      -0.01739094      -0.01337334      -0.00584772
H       15.37347313      16.33866696      22.32024535      -0.04175060      -0.03088924       0.04785440
H       14.96393686      15.53928112      26.32617198       0.00608426      -0.00779610       0.01782752
N       13.58641040      10.95393882      19.02878199       0.00285804       0.00225023       0.01020574
C       13.52555314      11.38528602      17.70955209      -0.00143159       0.00226411       0.00340774
N       13.23278975      12.66929184      17.59943934       0.01693740      -0.00275005       0.00301333
C       13.09893799      13.10469996      18.91582661       0.01439612      -0.02248019       0.00529184
C       12.80078949      14.36879470      19.47316318      -0.00273463      -0.03486879      -0.01123572
N       12.55398203      15.46512027      18.72168073       0.03005980      -0.00480848      -0.06836564
N       12.76050063      14.46711651      20.82777319      -0.00422432      -0.01415392      -0.01339185
C       13.00373082      13.37319832      21.58893094       0.00491132       0.00869084       0.01517208
N       13.28212808      12.13079298      21.16649722       0.03387943       0.00415233       0.02358987
C       13.31797534      12.05769656      19.82447863       0.00948120      -0.00917781       0.02103111
H       13.68954623      10.70636288      16.88268205       0.00944418       0.00762744       0.00754825
H       12.69262486      15.41132283      17.72233868       0.00497611      -0.00200289      -0.02341401
H       12.38641434      16.37243001      19.17534299       0.00063815      -0.08307646      -0.04284847
H       12.98037132      13.54674014      22.66131826      -0.00957016      -0.01668492       0.02382744
H       13.81682703      10.02554321      19.36469702      -0.00232942       0.01267657       0.00437499
N       11.26179903      17.77445249      24.19326133       0.01667823       0.00629715       0.00124287
C       11.78589557      16.63147543      23.56643861      -0.00865999       0.02251824      -0.03399256
O       12.08472364      15.61741612      24.19533300      -0.02940005      -0.00273771      -0.01880196
N       11.93289147      16.77453743      22.19520020       0.02564573       0.00930997       0.00135651
C       11.65940940      17.91987148      21.44136444      -0.02189243       0.01920511       0.07076808
O       11.85403408      17.93039202      20.20971759      -0.02908072      -0.03017807      -0.03123685
C       11.12901962      19.06923756      22.18091714       0.03055448       0.03591420       0.01721868
C       10.82519421      20.33071912      21.41670352      -0.02024127       0.00168304       0.01059655
C       10.95431280      18.94212299      23.52023694      -0.00636194      -0.00226360      -0.00859623
H       10.56367149      19.74574971      24.13764341       0.01958255      -0.00961078      -0.00887031
H       11.73577961      20.70917893      20.93630891       0.00165579       0.00872273       0.00889756
H       10.41889141      21.11278222      22.06690819       0.01417809      -0.03598053       0.01631622
H       10.10425357      20.12941943      20.61619328      -0.01344636       0.00785832      -0.01107374
H       12.28710746      15.92110120      21.67399433       0.02283603       0.00736467       0.01474014
H       11.14931325      17.70375396      25.19808936       0.00129224       0.00095131      -0.00798122
C       10.55090139      27.75478345      15.66389068      -0.00420273       0.00183320       0.00041343
C       10.26845754      28.34489859      16.88396752      -0.00584463       0.00755339       0.01136788
C       10.34172945      27.60623602      18.08559982      -0.00969820      -0.00256236       0.00155140
C       10.68192719      26.27119846      18.04716476      -0.01623035       0.00686022       0.01736523
C       10.97093879      25.62137363      16.81567699      -0.00951051       0.01014095       0.01482293
C       11.29527396      24.24448080      16.76901146       0.00381295       0.02014717       0.00585080
C       11.53596759      23.67104535      15.54305253      -0.00547851       0.02025155      -0.00597679
N       11.85471649      22.36516061      15.21851607      -0.00316297       0.01000211      -0.01203945
C       12.00404493      22.25595587      13.84040450      -0.00239575       0.01691272      -0.02261697
C       12.31270148      21.11961129      13.09235416       0.00756059      -0.02176028      -0.01179982
C       12.38984333      21.25975547      11.70961671      -0.00915724       0.01639284      -0.04005059
C       12.14592974      22.50096654      11.08013179      -0.00065666      -0.00132875      -0.00208002
C       11.83745221      23.63213347      11.82143395      -0.00721143       0.02389275      -0.01742282
C       11.77774569      23.53759949      13.23234051       0.00522654      -0.02757457       0.08113219
C       11.49535213      24.43600684      14.32270255       0.00982521       0.00298865      -0.02875728
N       11.24071398      25.77786368      14.38129410       0.01376363      -0.01389167      -0.00419964
C       10.92197532      26.39265017      15.60152127       0.00982830       0.00545794      -0.00329667
C       11.32339348      26.60376187      13.14757329      -0.01200911       0.01301801      -0.00897675
H       10.46047692      28.34812418      14.76473502      -0.00774879       0.02072721       0.00021186
H        9.98137818      29.39095655      16.90894020      -0.00953931       0.00661185       0.01504970
H       10.11859388      28.08857568      19.03148167       0.00780587      -0.00285804       0.00172161
H       10.72600031      25.68764879      18.96166775       0.00647198      -0.00756264       0.00765109
H       11.33966467      23.66526294      17.68681118       0.00948583      -0.00697900      -0.00381500
H       11.93949928      21.60416872      15.88181172       0.00153701       0.00427574      -0.01726753
H       12.48387073      20.16201039      13.57310145       0.00594233      -0.00952285       0.00610946
H       12.63094254      20.39519577      11.10012328       0.00058981      -0.01707830      -0.00267549
H       12.19171808      22.56919777       9.99842335       0.00671778      -0.01251562       0.00112717
H       11.63012164      24.56140692      11.30594641      -0.00316040      -0.02466151      -0.00076105
H       12.00405466      26.12857179      12.44799333       0.00389059      -0.00453543       0.00787580
H       10.33232700      26.71604835      12.69915067       0.00619944      -0.01522710      -0.02843280
H       11.72967316      27.58250085      13.39431379       0.02481578       0.00523991      -0.00696203
91
Lattice="26.295545419021675 0.0 0.0 0.0 36.90853783120437 0.0 0.0 0.0 34.5622988274239" Properties=species:S:1:pos:R:3:forces:R:3 energy=-12181.729299029892 pbc="F F F"
N       16.79580662      14.07230439      16.26732892      -0.01676102      -0.00108963      -0.00540395
C       16.64354148      15.23641534      15.52568520      -0.00674709       0.00171595      -0.00774879
N       16.35085682      16.28784634      16.27039946      -0.00715384       0.00162237      -0.00763875
C       16.30544120      15.78555821      17.57069343       0.00898086       0.00202397      -0.00304881
C       16.04326202      16.39921023      18.81793698      -0.00833089      -0.00837563       0.00103153
N       15.78828904      17.72098608      18.96336520      -0.02631524      -0.01686438      -0.00438219
N       16.05934272      15.60503134      19.91823898      -0.01484349      -0.00829695       0.00240552
C       16.32837324      14.28386037      19.79719538      -0.01327821      -0.00315834       0.00675789
N       16.59556491      13.60289842      18.67188183      -0.00597113       0.01009415       0.00674092
C       16.57233415      14.40750338      17.59313658       0.00027459       0.00508204      -0.00201060
H       16.77104307      15.24572139      14.45162028      -0.01192581      -0.01388293      -0.01047725
H       15.74334843      18.29315753      18.13198839      -0.01506512       0.00827278       0.01391995
H       15.50772319      18.10462263      19.87516709       0.00217978      -0.00213967      -0.00777193
H       16.30350676      13.72431702      20.72847599      -0.00901480      -0.00932436       0.00768091
H       16.97968469      13.13905701      15.91867554      -0.00626578      -0.00210522      -0.00376461
N       15.24063525      16.12302386      24.75099254      -0.00891659       0.00073019      -0.00703248
C       15.42375497      15.60002143      23.46045068       0.00478071      -0.00838283      -0.00310024
O       15.63680171      14.41064891      23.24739881      -0.00486093      -0.00566671       0.00121613
N       15.35741286      16.56590296      22.46425291       0.02142089      -0.00420273      -0.00431894
C       15.09705327      17.92524587      22.62809386       0.01115190      -0.00510004      -0.00239215
O       15.03794587      18.68378203      21.63435713      -0.00124030      -0.00150770       0.00093537
C       14.89812825      18.37983497      24.00496251       0.00051011      -0.00368953      -0.00411634
C       14.63832472      19.84383784      24.24482283      -0.00780793      -0.00572019      -0.00600250
C       14.97750909      17.45361288      24.99772962      -0.00847590      -0.00316194      -0.00370856
H       14.84765074      17.71391413      26.04411430      -0.01257218       0.00096314      -0.00638405
H       15.47844955      20.44903716      23.88420385      -0.01486561       0.00702220      -0.00273308
H       14.48973982      20.05685651      25.30842293      -0.00633108      -0.01243180      -0.00560089
H       13.75360777      20.17633062      23.68888030      -0.01205796      -0.00824039      -0.00125521
H       15.57204528      16.21689588      21.49074952      -0.00348590      -0.01608585      -0.00641387
H       15.22226230      15.43749324      25.49802721      -0.00393842       0.00064072      -0.00734256
N       13.78356648      10.95274913      18.32419926       0.00822290       0.00240604       0.00074768
C       13.70526357      11.38667671      17.00632843       0.00196175      -0.00055382      -0.00111689
N       13.40815434      12.66988433      16.90232685      -0.00230062      -0.00356921      -0.00609969
C       13.28802768      13.10195075      18.22151538       0.00658408      -0.00046383      -0.00367154
C       12.99772964      14.36514124      18.78403828       0.01300156      -0.00339180      -0.00140331
N       12.75699277      15.46963543      18.03647062       0.02625508       0.00459148       0.01406188
N       12.98066145      14.45761319      20.14028020       0.00410605       0.00172881      -0.00095799
C       13.23880981      13.36122774      20.89573276       0.00514735       0.00170927       0.00198695
N       13.51628045      12.12197000      20.46584718       0.01079555       0.00589194      -0.00056256
C       13.52398665      12.05283275      19.12403618       0.01445783       0.00294803       0.00024220
H       13.86086527      10.70935044      16.17709351       0.01110768       0.00219675      -0.00569139
H       12.76211953      15.38068559      17.02975392       0.01757092       0.01308075       0.00937733
H       12.52611235      16.36104932      18.48749340      -0.00103050      -0.00579578       0.00782078
H       13.22809775      13.52735880      21.96971502       0.00469329       0.01198134      -0.00212116
H       14.01934586      10.02488840      18.65720126       0.00897675       0.00377849      -0.00236901
N       11.44850224      17.70789758      23.51174122      -0.00337123       0.01376980      -0.01039137
C       12.01911565      16.59072127      22.88024549      -0.00488715      -0.00913153       0.00081195
O       12.34962783      15.58497602      23.50777609      -0.00563792       0.03844108      -0.03451603
N       12.17150437      16.74994211      21.51104360      -0.00892481       0.00811029      -0.01739403
C       11.81932258      17.87170099      20.75594501      -0.00235050       0.00904514      -0.01224359
O       11.98789542      17.88540150      19.51767098      -0.00060061       0.02720484       0.00614288
C       11.23547902      18.99216975      21.49749312      -0.00435391       0.00094617       0.00701603
C       10.82368665      20.22406328      20.73390873       0.00992189      -0.00184965       0.00696460
C       11.07194416      18.85343730      22.83818976      -0.00579372       0.01021397       0.00986018
H       10.63063035      19.62855759      23.45689388       0.01303755       0.02109745      -0.00820645
H       11.68588329      20.65952922      20.21310465       0.01008747      -0.01195203       0.00920506
H       10.39875515      20.98131012      21.40093361       0.00371164      -0.00637119      -0.00430248
H       10.07895418      19.97551215      19.96783914       0.01722845      -0.00224972       0.01042891
H       12.54711669      15.90256758      20.98753769      -0.01722948       0.00816120      -0.01569916
H       11.31626807      17.61852202      24.51269327       0.00405772       0.01498645      -0.00080064
C       11.22196178      26.73699527      15.61806237       0.01822244      -0.00010336       0.00278605
C       10.95543028      27.33991209      16.83382229       0.00098885      -0.00963855      -0.00231399
C       11.04723065      26.61518397      18.04596086       0.00946937       0.01991834      -0.01097038
C       11.39110814      25.28229643      18.02331971      -0.01015123      -0.00282667      -0.00362114
C       11.66265053      24.61806628      16.79473492       0.00737958       0.00123362      -0.00699134
C       11.99012810      23.24181879      16.76212431      -0.00175966       0.00572019      -0.01118584
C       12.20910021      22.65211488      15.53997838      -0.01169235      -0.00028231       0.00200135
N       12.51806114      21.34097618      15.22712795      -0.00770765      -0.00464701      -0.00406749
C       12.62978290      21.20940488      13.84751627       0.00136886       0.00231811      -0.00447063
C       12.91245076      20.05949042      13.10661687       0.00342728       0.00298916       0.00201523
C       12.95654016      20.18144899      11.72061549       0.00006993       0.00251814       0.00100119
C       12.71010292      21.41721233      11.08172531      -0.00241787      -0.00015170      -0.00158329
C       12.42553343      22.55973232      11.81492620      -0.00045971       0.00153701      -0.00148147
C       12.39628460      22.48379962      13.22942699       0.00119659       0.00252380       0.00079139
C       12.14374249      23.40148117      14.31017951       0.00300459       0.00224252      -0.00596547
N       11.89169747      24.74353677      14.35193674       0.02078634      -0.00371524       0.00254951
C       11.59499279      25.37417621      15.57002495       0.00709573       0.02040376      -0.00968586
C       11.96098192      25.54346703      13.09648619      -0.00614082       0.00318405       0.01089325
H       11.11505303      27.31884667      14.71305457      -0.00388802       0.00932385      -0.00280867
H       10.66103081      28.38435670      16.85516561       0.00481413      -0.00085926      -0.00656917
H       10.83752509      27.11116198      18.98792903       0.00369879       0.00030185      -0.00202603
H       11.45473054      24.71279503      18.94601400      -0.00162905      -0.00811543      -0.01336100
H       12.05269711      22.67271822      17.68556786       0.00002931       0.00301128      -0.00200186
H       12.58898330      20.58334490      15.89648858       0.00347819       0.00512318       0.00403406
H       13.09345918      19.10727371      13.59499735      -0.00099245       0.00512010       0.01206310
H       13.17835399      19.30726896      11.11651272      -0.00458428      -0.00228005       0.00906777
H       12.73867076      21.47129427       9.99877006      -0.00947400      -0.00426700      -0.00418473
H       12.21384863      23.48213579      11.29029106      -0.00363143       0.00324165       0.00429631
H       12.67162889      25.06939817      12.42547500       0.01912490       0.02251978      -0.00256493
H       10.97579291      25.59938841      12.62432347       0.00831649      -0.00345556       0.01100689
H       12.32559430      26.54374115      13.31952918       0.01323450      -0.01043508      -0.00245540
91
Lattice="26.295545419021675 0.0 0.0 0.0 36.90853783120437 0.0 0.0 0.0 34.5622988274239" Properties=species:S:1:pos:R:3:forces:R:3 energy=-12181.858429915932 pbc="F F F"
N       17.16068190      13.94872511      15.46774028       0.00108243       0.00057078      -0.03619599
C       17.10377487      15.13461639      14.74610289      -0.01271256       0.00515301      -0.03072777
N       16.82271163      16.18405428      15.49798843      -0.01274753       0.00085566      -0.03462094
C       16.68979830      15.65984614      16.78170736      -0.01056621      -0.03383109      -0.01507592
C       16.37931644      16.26372822      18.02060638      -0.02143529      -0.02067784      -0.02552797
N       16.14489946      17.59219340      18.16226401      -0.02651785      -0.02135096      -0.01884927
N       16.30574683      15.45254412      19.10501308      -0.01098015      -0.00382117       0.00201472
C       16.52798992      14.12312201      18.97484337      -0.01240814       0.00399858      -0.00545434
N       16.82211032      13.44898271      17.85200338       0.00795448      -0.00961747       0.01445526
C       16.89069895      14.26916789      16.78807725      -0.00916598       0.06017205      -0.01476636
H       17.28752193      15.16071909      13.68073515      -0.00796682      -0.02165692      -0.02106042
H       16.30080225      18.19569247      17.36696543      -0.01284935      -0.01583800       0.00279839
H       15.86886646      17.98684357      19.07030476      -0.00360880      -0.00821622       0.01211350
H       16.43561996      13.55168075      19.89460625       0.00337483      -0.00461564       0.00092097
H       17.32350057      13.01524622      15.10859255       0.00673218       0.00737444      -0.00272486
N       15.50564760      16.03006512      23.92525950      -0.01470877      -0.00216178      -0.00729576
C       15.67087657      15.49509831      22.63786979      -0.00790820      -0.00161928      -0.00798276
O       15.86559162      14.30049930      22.43384366      -0.00156683       0.00084486      -0.00333421
N       15.60488880      16.45419485      21.63325109      -0.00610277      -0.00153649      -0.01104649
C       15.34262649      17.81369171      21.78873016      -0.00976454      -0.00528002      -0.01500085
O       15.27345167      18.56526064      20.79069252      -0.00826918       0.00349259      -0.01200448
C       15.15116808      18.27869954      23.16420463      -0.00422638      -0.00341134      -0.01259429
C       14.89333336      19.74409723      23.40058231      -0.01146558      -0.00976248      -0.00698312
C       15.23906169      17.36059771      24.16372366      -0.00373478      -0.00424335      -0.00802236
H       15.11614848      17.62913708      25.20901796      -0.01310543      -0.00400012      -0.01261075
H       15.73132840      20.34890679      23.03390418      -0.01803218       0.00176018      -0.00787889
H       14.75422459      19.95817735      24.46524046      -0.00937579      -0.00697746      -0.00677383
H       14.00340612      20.07710524      22.85342011      -0.01434984      -0.01323398      -0.00565437
H       15.80757110      16.08946691      20.66324249      -0.00080630      -0.00158791      -0.00829541
H       15.47879251      15.34896044      24.67605268       0.00049005      -0.00435956      -0.00420324
N       13.95999944      10.93250644      17.59424573       0.05827303      -0.04631123       0.00544457
C       13.87283364      11.37918571      16.28154469      -0.02515208      -0.00317017      -0.03098539
N       13.57608939      12.66226843      16.18880647      -0.00111637       0.03942633      -0.01746602
C       13.47145438      13.08562046      17.51217948      -0.00347767       0.04429497      -0.00883842
C       13.17810287      14.34328819      18.08581169       0.01733849      -0.00322365       0.02134324
N       12.92667569      15.45622126      17.34721317       0.01826872      -0.02782705       0.00926831
N       13.17506083      14.43143385      19.44129567       0.01911050      -0.00933105       0.00934750
C       13.45551468      13.33280442      20.18727855       0.00623698      -0.01208316       0.02121057
N       13.73385045      12.09903694      19.74494008      -0.03456334      -0.00827021       0.02742853
C       13.72215509      12.03131526      18.40368742      -0.04273997       0.03468007       0.01135708
H       14.01724074      10.71198593      15.44400901       0.02322478      -0.04666758      -0.03039610
H       12.79920016      15.34202891      16.35075194       0.02659858       0.02120132       0.00465833
H       12.65155483      16.32821966      17.81125854      -0.00490361      -0.03064704      -0.00888265
H       13.46335737      13.48890882      21.26278775      -0.00188719       0.03349891      -0.02019807
H       14.22759934      10.00712298      17.91631871      -0.02860404       0.08394550      -0.02267610
N       11.60434071      17.62714116      22.83038044       0.01100329       0.01965197      -0.01303292
C       12.22797020      16.54927106      22.18157182       0.00225229       0.00492109      -0.00109323
O       12.62527069      15.56115419      22.79602499      -0.02110516       0.03227146      -0.03279082
N       12.35423032      16.72424985      20.81124937      -0.00105621       0.01515923      -0.01079709
C       11.94660254      17.83824640      20.07422014       0.00141256       0.00656763      -0.01264160
O       12.12822809      17.88584092      18.83709686      -0.04007990       0.01255778      -0.00881528
C       11.29050842      18.91061464      20.82880424       0.00213556      -0.03304742       0.02508677
C       10.78051480      20.10852138      20.06947853       0.02655950      -0.01361965       0.02332505
C       11.14762490      18.75131453      22.17135884       0.03010248       0.02090358      -0.01230324
H       10.66713051      19.49147368      22.80433268       0.00016969       0.01862250      -0.03843080
H       11.59911566      20.58287182      19.51387365       0.00321491       0.01180034       0.00967969
H       10.33602852      20.85094928      20.74042983      -0.00076002      -0.02164252      -0.01241534
H       10.02942367      19.80722907      19.32793941       0.02844874       0.02427533       0.03175518
H       12.74632463      15.88765746      20.28087362       0.00162339       0.02094781      -0.01545079
H       11.49738422      17.52194643      23.83299952      -0.01388344       0.02745681       0.00074511
C       11.88239732      25.71300070      15.57284571      -0.00942052       0.01128200      -0.01352760
C       11.64254422      26.33357619      16.78659088       0.00223326       0.00752408      -0.01810365
C       11.77840309      25.63194250      18.00430829      -0.00422741      -0.01258607      -0.03126924
C       12.13144275      24.30080836      17.99411272      -0.00826147       0.00455805      -0.01664481
C       12.37421092      23.61945874      16.76823591      -0.01179725      -0.01374152      -0.01476070
C       12.70000173      22.24319564      16.74877392      -0.01422540      -0.02006232       0.00093588
C       12.88408818      21.63079526      15.53186919      -0.01342373      -0.02466357      -0.00258036
N       13.18531706      20.31459917      15.23342723      -0.02325306      -0.02471036      -0.01114933
C       13.25614328      20.16159232      13.85247487       0.01698059       0.00443567      -0.00782798
C       13.51794782      19.00207843      13.11824595       0.01796841      -0.00178589      -0.00883123
C       13.53176891      19.10801266      11.72954786       0.00229857      -0.01062586      -0.00281433
C       13.28002203      20.33548648      11.07455473       0.00153392      -0.00888059       0.03488370
C       13.01385489      21.48746145      11.80143738       0.00573459      -0.00945189      -0.00665916
C       13.01232100      21.42725042      13.21872500       0.02799057       0.00161414      -0.00386231
C       12.78943462      22.35961594      14.29180344      -0.00695792       0.01392870       0.01180034
N       12.54094857      23.70276504      14.31917290       0.00096776      -0.01523122       0.01449794
C       12.27055724      24.35386632      15.53312445      -0.01573721       0.00383969      -0.01147175
C       12.61204431      24.48248486      13.05020088       0.01237112      -0.02125017       0.02324432
H       11.73872751      26.27859610      14.66236626       0.00517769       0.00868004      -0.00955988
H       11.33718084      27.37508639      16.79769974       0.00055227      -0.00332701      -0.00593565
H       11.59291940      26.14221649      18.94420613       0.00187999      -0.00865639      -0.00959536
H       12.22282799      23.74435642      18.92254479      -0.00008073      -0.00206305      -0.01663761
H       12.77540417      21.68961525      17.67979753       0.03015287      -0.03084450      -0.00324216
H       13.22201512      19.56311301      15.91489904       0.01472831      -0.00261533      -0.00330284
H       13.71340630      18.05670566      13.61457293       0.00534275       0.00884254       0.00408034
H       13.73346691      18.22429566      11.13315959       0.01108711      -0.01975893       0.00434362
H       13.28589209      20.37617920       9.99016064      -0.00365559      -0.01531246       0.01736575
H       12.79711682      22.40656653      11.27272765      -0.00316349       0.00128864       0.00872684
H       13.35507197      24.01883380      12.40564158      -0.00112460       0.01110819      -0.00633314
H       11.63876214      24.50679108      12.55037600       0.01356771      -0.03137980       0.04342696
H       12.94414904      25.49608059      13.26500816       0.00063815      -0.01808668      -0.00811800
91
Lattice="26.295545419021675 0.0 0.0 0.0 36.90853783120437 0.0 0.0 0.0 34.5622988274239" Properties=species:S:1:pos:R:3:forces:R:3 energy=-12182.199912760378 pbc="F F F"
N       17.50719638      13.82656037      14.66550457       0.02215314      -0.00454263       0.00349670
C       17.55398741      15.01920470      13.95350471      -0.01914752      -0.00684891      -0.00700677
N       17.28830325      16.07624701      14.69993756      -0.02153608      -0.00450046      -0.02327054