91
Lattice="32.36662010585383 0.0 0.0 0.0 25.041469847696504 0.0 0.0 0.0 32.10023026057303" Properties=species:S:1:pos:R:3:forces:R:3 energy=-12182.86282476371 free_energy=-12182.86282476371 pbc="F F F"
N       21.04819926      10.90097980      13.33331560       0.00790203      -0.05183139       0.00058210
C       21.06953473      10.46443656      14.65413455       0.00534378       0.00083407       0.02428356
N       19.86245931      10.33491557      15.17285383      -0.00727519      -0.04525965      -0.01710658
C       19.00191415      10.69289608      14.13627035      -0.04316831      -0.00959947      -0.00347665
C       17.59255714      10.75042153      14.04748111       0.02606379       0.01210681      -0.04091294
N       16.76649398      10.40737717      15.06587875      -0.05175014      -0.00757807       0.03334824
N       17.05275040      11.17629545      12.87710730       0.00458891       0.02172274       0.00670492
C       17.85800071      11.48844434      11.83631697       0.02958054       0.02044850      -0.02100026
N       19.20004890      11.44663803      11.80223477       0.02146203       0.05859030      -0.00354812
C       19.71475892      11.04615503      12.97911985       0.01997130       0.01281232      -0.01161059
H       21.99897367      10.26522816      15.17031160       0.00921381      -0.00531550       0.00630023
H       17.15993682       9.99995685      15.90290220       0.01569607       0.00117139      -0.00932745
H       15.75207992      10.52135469      14.97390780       0.00671367       0.00951720      -0.00993989
H       17.34480420      11.82365353      10.93923716      -0.00595365      -0.00753128      -0.02400896
N       19.91520579      14.65998872      11.20470406      -0.00055022       0.00128812       0.00854583
C       18.52171242      14.60126706      11.35564092      -0.01126298      -0.00674606       0.01757195
O       17.74569282      14.59805356      10.40625071      -0.05157376      -0.02302526       0.07185411
N       18.11808476      14.54099960      12.68725056       0.01559323       0.00296808       0.01925808
C       18.94261309      14.42964313      13.80346270       0.01548781      -0.00064638      -0.01124395
O       18.44045532      14.32625262      14.95010541       0.05152080      -0.04050208       0.00767166
C       20.38097322      14.43982303      13.55030863      -0.01345304      -0.00403406       0.00002417
C       21.33134077      14.31032528      14.71356856      -0.01561945       0.00822239      -0.01859165
C       20.79447133      14.55752357      12.25902797       0.00674503      -0.00535664       0.01204202
H       21.84591490      14.57916805      11.98913026      -0.00172007      -0.00199518       0.00079139
H       21.09814866      15.04138994      15.49438655      -0.02657441      -0.00332392       0.00801516
H       22.36695580      14.46449409      14.39592021       0.00863479      -0.01711275      -0.00264926
H       21.25739292      13.31614073      15.17125027       0.00196689       0.00527848      -0.01532943
H       17.07556524      14.51284376      12.83900841       0.02779568       0.00546874      -0.00431225
N       11.30992318      14.49878694      13.62491650      -0.00828512      -0.00327147       0.00422278
C       11.29181906      14.53499027      15.01412387      -0.00544817       0.02344126       0.00412251
N       12.50173346      14.54560496      15.54491818      -0.00262458      -0.00511804      -0.01992194
C       13.35987713      14.52797815      14.44477178      -0.00459353       0.00697129      -0.01620412
C       14.76770296      14.57986135      14.33411398      -0.01111848      -0.00555667      -0.00679645
N       15.59160718      14.68665162      15.40514325      -0.01437452      -0.00742586      -0.00247186
N       15.30630041      14.51418912      13.08900453       0.00074665       0.00447835       0.00335015
C       14.49528217      14.45609838      12.00712739      -0.01038623       0.00332289       0.00164859
N       13.15196397      14.45003158      11.99542668      -0.00890322      -0.00387465      -0.01386802
C       12.64254439      14.48880091      13.23962417      -0.02872385       0.04994728      -0.03233882
H       10.36286228      14.55978243      15.56759600      -0.00709162      -0.01541222       0.01349212
H       15.18800033      14.88478154      16.31079685       0.00481105      -0.00201009      -0.00235822
H       16.60800397      14.73285573      15.26699443      -0.00075385      -0.00579372       0.02133810
H       15.00483935      14.40256776      11.04808195       0.00056719      -0.01829443       0.00920198
N       12.50519004      11.32290184      10.95583256      -0.01385105      -0.04742297       0.07024306
C       13.89243206      11.38638517      11.14423528      -0.02247967       0.06014016       0.04364551
O       14.68909725      11.52805338      10.22418311      -0.05363579       0.05443386       0.04308809
N       14.26656425      11.27944717      12.48115290      -0.01925037       0.00198952       0.03079770
C       13.42477332      11.17209790      13.57803618       0.04469503       0.01092565      -0.01490726
O       13.91268348      11.13039017      14.73917703      -0.01761874       0.03103167       0.00813086
C       11.99620496      11.10996265      13.29355130       0.02404650       0.00188410       0.03707531
C       11.04033810      10.95585016      14.44623420      -0.00073122      -0.00663293       0.00354401
C       11.60650872      11.19102843      11.99134384      -0.01454627       0.00394304      -0.02383516
H       10.56188869      11.15324646      11.69490844       0.02342275       0.00710036       0.02479264
H       11.23257551      10.02261817      14.98756438      -0.00921792       0.00210471       0.01200294
H       10.00008792      10.95268419      14.10665530       0.00328536      -0.00062941       0.00055330
H       11.17202771      11.77155116      15.16517893      -0.00687770      -0.00164448      -0.01674920
H       15.30531780      11.29281506      12.65366476       0.07487979       0.00038824       0.00346225
H       10.51292835      14.50428248      12.99937038      -0.00823370       0.00657843      -0.00825016
H       20.24619604      14.65871054      10.24474934      -0.00960101       0.00409063       0.03466670
H       12.19077557      11.44011828      10.00004322      -0.02637026       0.00773491      -0.06528597
H       21.84035343      11.03285157      12.71627049       0.02968236       0.00529750      -0.01555775
C       19.21427413      11.89278637      20.31629334       0.00516535      -0.00095439      -0.02390869
C       20.45330129      12.03064772      19.70900910      -0.02354205      -0.00145422       0.02026801
C       20.56722748      12.37743098      18.34419365      -0.02093392      -0.01586885       0.02000884
C       19.42917553      12.53752879      17.58486499       0.02038834       0.00378672      -0.02265296
C       18.13881436      12.37733713      18.15976205       0.02105579       0.01638153       0.00993063
C       16.97569197      12.49409266      17.36303652       0.02842149       0.00964215      -0.00371987
C       15.75087755      12.30736016      17.96325523       0.01234438       0.00539212       0.00962158
N       14.47674581      12.36608289      17.42551937       0.01350292       0.00472466      -0.01284729
C       13.55305220      12.17928678      18.44182559       0.00977019       0.01282158      -0.01176588
C       12.15784650      12.18593353      18.35231112      -0.01163013      -0.00642622      -0.00989566
C       11.43316961      11.98975504      19.52271336       0.00352190      -0.01302521      -0.00865639
C       12.07764205      11.77838394      20.76376268      -0.01302058      -0.01815302      -0.01004222
C       13.46094424      11.77537721      20.85952409      -0.00643804      -0.00204763       0.00215356
C       14.23415094      11.99593833      19.69329363      -0.01023659       0.01814171      -0.00093794
C       15.63551847      12.08421868      19.38199388      -0.00979745      -0.00958559       0.00511701
N       16.76240178      12.02472992      20.15429273      -0.01400737      -0.01745419       0.00762846
C       18.03325312      12.09292567      19.56546557       0.00435185      -0.02047061       0.01194637
C       16.63972933      11.92203414      21.63119608      -0.01016614      -0.00362474       0.00604364
H       19.16892580      11.60326075      21.35784035       0.02365929       0.01651985       0.00337380
H       21.34582972      11.86015575      20.30290636       0.01977898       0.01396006      -0.01744956
H       21.54986173      12.49825045      17.89673539      -0.04900369      -0.00353527       0.00310384
H       19.47779904      12.78996033      16.53422662       0.01082537       0.01724542      -0.01563179
H       17.06645089      12.72941711      16.31169607      -0.00095028      -0.02194642       0.00100273
H       14.25814591      12.29464237      16.42976716      -0.01156585      -0.01167538      -0.01392767
H       11.67583036      12.36394642      17.39940247      -0.00544663      -0.01083206      -0.02039502
H       10.34825568      11.99895301      19.48689930      -0.00715127      -0.00503422      -0.01063460
H       11.47930916      11.61541564      21.65420922       0.00188565      -0.00345556      -0.00596496
H       13.92177972      11.59557997      21.82213045      -0.00489487      -0.01678262      -0.00662008
H       15.72119074      12.41198779      21.94124013       0.00619533       0.01471905       0.00607860
H       16.63172625      10.87359610      21.94289944      -0.01144141       0.00307350       0.01115705
H       17.47204716      12.44350677      22.10037507      -0.01563128      -0.00594182       0.00749631
91
Lattice="32.36662010585383 0.0 0.0 0.0 25.041469847696504 0.0 0.0 0.0 32.10023026057303" Properties=species:S:1:pos:R:3:forces:R:3 energy=-12182.654144970342 pbc="F F F"
N       20.99911042      10.85086084      13.51859070      -0.01102078       0.01023762       0.00835351
C       20.88130376       9.91634759      14.54669753      -0.02738019       0.01147843       0.00382580
N       19.63003309       9.70688160      14.90706905       0.01433287      -0.00144290       0.01228525
C       18.88420995      10.52626191      14.06457432       0.01943703      -0.00378826       0.00638456
C       17.49577682      10.77130805      13.97493440      -0.01790362       0.00066180       0.00015272
N       16.59473844      10.19433767      14.80369844      -0.01973579       0.00947503       0.00203117
N       17.06901997      11.66386989      13.03784520      -0.00438116      -0.02565344      -0.01492628
C       17.97986393      12.27451697      12.23857063       0.00231605      -0.00488870       0.00107472
N       19.31594794      12.14332666      12.26319959      -0.00733639      -0.02025824       0.03735350
C       19.71069626      11.24724269      13.18885840      -0.00504502       0.00919941       0.00322005
H       21.74962932       9.43485839      14.97706784      -0.00762744       0.00301076       0.00165990
H       16.91411988       9.49447209      15.46054337       0.00028694      -0.00507176      -0.00945960
H       15.59572483      10.40644827      14.71452234       0.00512575       0.00763978      -0.01444857
H       17.57503962      12.95560508      11.49665975      -0.00426443       0.00464958      -0.00572379
N       20.48157193      15.54978351      11.71534047      -0.00744592      -0.00474317      -0.03078536
C       19.09219995      15.35850804      11.69824443      -0.00265544       0.00955731       0.00256288
O       18.45954310      15.11112992      10.67715967      -0.01477253       0.01818027      -0.01116424
N       18.51258666      15.47324361      12.95743919      -0.00688747      -0.00952954      -0.00890167
C       19.17301755      15.71872963      14.15973696      -0.02870431       0.01240455       0.01588685
O       18.52350650      15.77633937      15.22832157       0.00141308       0.00793237       0.02194591
C       20.62193214      15.87736276      14.09123900      -0.00771485      -0.01715286       0.01120641
C       21.36318113      16.17335309      15.37008710       0.00415696      -0.02000678      -0.01506615
C       21.20746245      15.78216545      12.86669368       0.00167122       0.02029218      -0.00770971
H       22.27831087      15.89534754      12.72548670      -0.01278353       0.00785266      -0.00063301
H       21.04420804      17.13784839      15.78196635       0.01251665       0.00475037       0.00518283
H       22.44527680      16.20314431      15.21220778       0.00267600       0.00339540      -0.01831808
H       21.13602290      15.42208872      16.13421084       0.00798945      -0.00236542      -0.01823478
H       17.46785897      15.36713350      12.99758930       0.00147016       0.00350596       0.00124801
N       11.64178452      15.41396125      13.05868847       0.00485733      -0.00405000      -0.00575516
C       11.44415579      15.93451513      14.33638861       0.00790923      -0.01974864      -0.01227445
N       12.57318498      16.12607288      14.99115098      -0.00905388       0.01036566      -0.00079396
C       13.56685329      15.73326234      14.09608887      -0.00436316       0.00241684       0.01280358
C       14.97984104      15.72818137      14.18762132      -0.00173961       0.00790203       0.01038931
N       15.65755028      16.17085912      15.26896758       0.00267909      -0.00279016      -0.02450621
N       15.67457524      15.23871075      13.12236771      -0.00493652       0.00391425      -0.00945960
C       15.00758246      14.83790890      12.01268067      -0.00827278       0.02732569      -0.01807280
N       13.68084569      14.82830323      11.81170857       0.00188410       0.00607192       0.01237832
C       13.01257475      15.28406691      12.88754195      -0.00118528       0.00269760       0.00342831
H       10.45330428      16.14679544      14.71624176       0.00414462      -0.01016306       0.00406954
H       15.13605659      16.51622461      16.06326645      -0.00695175       0.02019499      -0.00457862
H       16.68307026      16.10797058      15.30228806       0.00122282      -0.00450920       0.00505273
H       15.62550614      14.48030531      11.19368850       0.00785009      -0.01355537       0.00406440
N       12.59529198      11.76191716      10.64768356      -0.00598039      -0.01976716      -0.03925149
C       13.96518188      11.90167660      10.91983891      -0.00880860      -0.00169899       0.00282256
O       14.78366438      12.23721553      10.07664275       0.03689379       0.00626424      -0.00757396
N       14.28167126      11.61965074      12.24865438       0.02465174      -0.00174372      -0.01808206
C       13.39232928      11.25772541      13.25182526       0.00245746      -0.00325759      -0.01622109
O       13.81909435      11.07165009      14.42110212      -0.00760378      -0.00284210      -0.00231914
C       11.98961579      11.12985710      12.88280540       0.01194432      -0.01970648      -0.01909816
C       11.01136681      10.66411087      13.93188485       0.00528825      -0.00410091      -0.01526618
C       11.65781795      11.39543884      11.58837501       0.00822290      -0.00149124       0.00115957
H       10.63779964      11.32002909      11.22322359       0.00511547      -0.00030442       0.00977842
H       11.24357978       9.63745073      14.23999739      -0.01476945       0.00971311       0.00854326
H        9.98133185      10.68879764      13.56493021       0.00222709       0.00495452      -0.03257588
H       11.07785896      11.27738394      14.83622140       0.00727211       0.00603335      -0.01403462
H       15.29355793      11.69592549      12.51416874       0.00130098      -0.00730553      -0.02529400
H       10.94003210      15.23955055      12.34867361      -0.01623292      -0.00371679       0.00151849
H       20.93876560      15.47238317      10.81333376       0.01734672      -0.03536913      -0.00180183
H       12.32464197      11.98806429       9.69712705      -0.02408044       0.01038571      -0.03152738
H       21.84408528      11.12294008      13.02897574       0.00954651       0.00311052       0.00489898
C       19.07548019      12.55310256      19.10460864       0.00001440      -0.00399652      -0.00952954
C       20.32837233      12.50391589      18.51660833       0.01603906      -0.01010444       0.00959536
C       20.49412477      12.71123524      17.12891359       0.00762795      -0.00806247      -0.00771691
C       19.39365846      12.95058251      16.33820259      -0.00140639      -0.00402892       0.00170978
C       18.08627721      12.98780607      16.89390036      -0.00125984       0.01274136       0.00084332
C       16.95246276      13.19844170      16.07750421      -0.01070196      -0.00334758      -0.00154935
C       15.71166031      13.14915169      16.66457638       0.02728918      -0.00100170      -0.00832215
N       14.46186865      13.27992746      16.08746103      -0.01756938       0.00161208      -0.01550118
C       13.49888701      13.12329390      17.07194228       0.00353887      -0.01167178      -0.00005245
C       12.11114550      13.12408699      16.91631115       0.00027922      -0.00713173      -0.04017966
C       11.33097689      12.92046442      18.04810211       0.06730634       0.03086455       0.03346548
C       11.92373299      12.71969217      19.31703535      -0.00630332      -0.01026333      -0.02554957
C       13.30286798      12.73075919      19.47913548       0.01523996       0.01303858       0.01842915
C       14.12788091      12.94733732      18.34802633       0.00012547      -0.01688084       0.02776946
C       15.54476872      12.97455047      18.07904229      -0.01436938      -0.01151803      -0.00514889
N       16.64810131      12.87605706      18.87813876       0.01219423       0.00331775       0.02816541
C       17.93122132      12.80490041      18.31239477      -0.01252847       0.00159666       0.02367215
C       16.47185437      12.85796736      20.35243393      -0.00910582       0.00573407       0.02809342
H       18.98807360      12.36787954      20.16713447       0.00582921      -0.00033579      -0.00222863
H       21.19434396      12.29611194      19.13791610      -0.00981493      -0.00031830      -0.00700883
H       21.48579070      12.67338433      16.68967998      -0.01289665       0.00507227       0.00770560
H       19.50025282      13.10878210      15.27243927       0.00024323       0.00657534       0.00217155
H       17.06354784      13.37536870      15.01407572      -0.01586319       0.00176121       0.01604626
H       14.28863981      12.98117765      15.13054709       0.00484653      -0.00368233       0.00637222
H       11.67442435      13.29221633      15.93874309      -0.01024790      -0.00271766       0.01085263
H       10.24915956      12.91599475      17.95718145       0.00038772      -0.00750145       0.02046238
H       11.28571098      12.54798827      20.17626088      -0.00617836      -0.00381449       0.04214141
H       13.71943626      12.54508076      20.46049453       0.01364433       0.01543125       0.01801161
H       15.57906013      13.42628909      20.60091831       0.00033219       0.01328129       0.00343088
H       16.37455715      11.83144638      20.71595605       0.00195352      -0.01886316       0.00616088
H       17.31916046      13.34218683      20.83294846       0.02500912       0.01064334      -0.00836328
91
Lattice="32.36662010585383 0.0 0.0 0.0 25.041469847696504 0.0 0.0 0.0 32.10023026057303" Properties=species:S:1:pos:R:3:forces:R:3 energy=-12182.629680226157 pbc="F F F"
N       20.99399692      10.51741766      13.51488132       0.04652823       0.01798538      -0.04028096
C       20.96563705       9.85884296      14.74214078      -0.01339493       0.02476950      -0.03781425
N       19.74373366       9.71280988      15.21656195       0.01199780      -0.01457404       0.01196180
C       18.92673010      10.28606548      14.24733239       0.00247186       0.01135348       0.01482241
C       17.52931613      10.47291684      14.17641071      -0.01552998      -0.01574441      -0.02633427
N       16.67307753      10.09442038      15.15572520      -0.01123469       0.00668487       0.02378065
N       17.03764324      11.10845207      13.07954611      -0.02040839       0.03335801      -0.00565231
C       17.88366804      11.55050241      12.11519297       0.00951051       0.00065563      -0.01782135
N       19.21979516      11.44759637      12.09386873      -0.01809183      -0.00865176       0.04236047
C       19.68142161      10.79441798      13.17850680       0.00189233       0.02485486      -0.02846314
H       21.87367093       9.51734202      15.21795307       0.02583753      -0.02293990       0.04608343
H       17.02714698       9.48966403      15.88633217      -0.00599067      -0.00047874       0.00546617
H       15.65774136      10.16378719      15.00620711      -0.00578704      -0.00501519      -0.00238650
H       17.40453152      12.04580497      11.27313647      -0.00418473      -0.01062843       0.00328073
N       20.82666276      16.29184297      12.42160922      -0.00063455       0.00340208       0.01682427
C       19.43408818      16.20876790      12.25588769      -0.03535061      -0.00138274       0.02968904
O       18.89949936      16.00821150      11.17018266       0.00938710      -0.00656146       0.01381248
N       18.73208995      16.36329276      13.45140184       0.06229423       0.00072659      -0.02172325
C       19.27575688      16.58615736      14.72219538      -0.01051376      -0.01332654      -0.00785061
O       18.52617368      16.68200903      15.71616709       0.00062169      -0.02923499      -0.01722742
C       20.73429646      16.66747935      14.79511878       0.00694712       0.00241375      -0.00186611
C       21.36432710      16.89814113      16.14226027       0.00282307      -0.00711681      -0.00245438
C       21.44044347      16.52136836      13.64230078       0.01093336      -0.02209452      -0.02247041
H       22.52353631      16.57779206      13.61241638       0.01666692      -0.01159876       0.00570476
H       21.00463869      17.83416484      16.58324394       0.00527128       0.00016147       0.00594748
H       22.45509623      16.93868199      16.07250879       0.00734924       0.00509181      -0.00142079
H       21.08471283      16.09622380      16.83525600      -0.00053736      -0.00688079       0.00554947
H       17.68827638      16.31171681      13.37400094      -0.02341195       0.00042783      -0.00033630
N       11.87720311      16.41738725      12.77027023       0.01950182      -0.02731180       0.02492170
C       11.55207935      16.96583596      14.01021321       0.03246327      -0.00684119      -0.01415547
N       12.60568327      17.14218863      14.78398659       0.01962780       0.01219114      -0.01109585
C       13.68211389      16.71718230      14.00918577       0.03037604      -0.02366701       0.00821519
C       15.07165956      16.63653572      14.27257419      -0.00261995       0.00156272      -0.01118996
N       15.61836605      16.93306148      15.47331844       0.01212892       0.00409320      -0.02253881
N       15.87404311      16.18250763      13.26805457       0.01870375      -0.00807121       0.00897264
C       15.32728368      15.77996586      12.09333728      -0.00186302      -0.00727005       0.03303971
N       14.02563907      15.75808587      11.76528488      -0.00446961      -0.02126045      -0.00269760
C       13.25753213      16.25897869      12.75263871      -0.03597128       0.07243107      -0.04732630
H       10.52913253      17.20045519      14.27565617       0.02217011       0.00776782      -0.00060421
H       15.03057328      17.36956346      16.17304843       0.03559435      -0.00723097      -0.00178332
H       16.63902550      16.89500874      15.60213332      -0.02054414       0.02158750       0.00074511
H       16.03513211      15.43303327      11.34418881       0.00353990      -0.00106547      -0.00369159
N       12.55701470      11.89916855      11.10719666       0.01859833       0.03517629       0.00981750
C       13.94040611      11.84403362      11.33423219       0.01590947       0.00113540      -0.01231661
O       14.76989757      12.21036556      10.50761027      -0.00722531      -0.00513449      -0.00062118
N       14.26307355      11.35021185      12.59583380       0.02323815       0.03891468      -0.00203271
C       13.37423310      10.87901897      13.57139126       0.01227239       0.02724393      -0.01522607
O       13.81641142      10.45316829      14.65658723       0.00500028      -0.00515146       0.00950897
C       11.95112418      10.95454729      13.23818377       0.05690572       0.02619440      -0.00932436
C       10.94642366      10.44155821      14.23673679       0.01861222      -0.00228417      -0.00877620
C       11.61401199      11.46580363      12.02243398       0.01990188      -0.01524664       0.01508569
H       10.58185568      11.55691993      11.69769690       0.00237673      -0.01902616       0.00831803
H       11.09234369       9.36956333      14.41163668       0.00393173       0.00082275       0.01240969
H        9.92089649      10.59791972      13.88838681       0.00771485       0.00755184      -0.00346173
H       11.07297234      10.93907365      15.20325915       0.00616191       0.01175303       0.01717086
H       15.29563068      11.26211487      12.79659083      -0.02700173      -0.00098525      -0.03264170
H       11.25707240      16.27940183      11.97936314       0.01019391      -0.01232433       0.01187695
H       21.37086843      16.18799706      11.57144660       0.00202192       0.01792470       0.00151695
H       12.28301110      12.27110633      10.20367419      -0.01623343      -0.01277736       0.00023294
H       21.80076850      10.68730639      12.92641609       0.04626598       0.01184404      -0.02193614
C       19.10028125      13.01769373      17.93731610       0.04207096       0.03313021      -0.04296159
C       20.36815660      13.03870493      17.38268610      -0.01710606      -0.04049642       0.01850680
C       20.55999132      13.23097534      15.99662839       0.02468311       0.01778124      -0.02241231
C       19.47120617      13.41390876      15.17661699      -0.01964631       0.00291717       0.01665304
C       18.15234456      13.41029530      15.70544415      -0.00410400       0.01165018      -0.01744648
C       17.03649300      13.60409479      14.86659809      -0.04007013      -0.00336969      -0.00465575
C       15.78347477      13.52445935      15.42296059       0.03803999       0.00372141       0.03425327
N       14.55106063      13.66677071      14.82489448      -0.01257321      -0.01104135      -0.00716721
C       13.55799917      13.56026041      15.77975223      -0.00613722       0.00251917       0.00381500
C       12.17925444      13.67881502      15.60057967       0.00914696      -0.00150050      -0.02124503
C       11.36759481      13.51990635      16.71661022       0.05325064      -0.01287763       0.04826527
C       11.91604662      13.22975803      17.98561485      -0.00559472       0.00397904      -0.00307710
C       13.28826600      13.12520879      18.16800566      -0.00003548      -0.00394150      -0.00232068
C       14.15308696      13.31584272      17.06317143      -0.00749682       0.01222148      -0.01330906
C       15.57957168      13.31478823      16.83075992      -0.02762599      -0.03469190       0.00936293
N       16.66871054      13.19412333      17.64775085      -0.01202608       0.00027819      -0.00764646
C       17.96534668      13.20141178      17.11377434       0.00764183      -0.00011004       0.01180445
C       16.51024153      13.09811588      19.12307792      -0.00189233       0.00009256      -0.01461004
H       19.00422268      12.85183842      19.00076728      -0.02535622      -0.01273519       0.02793915
H       21.22943313      12.88788459      18.02490746       0.00169590       0.00271354       0.03015441
H       21.56277899      13.23514435      15.58067626      -0.02506363       0.00720372       0.02947770
H       19.59143009      13.55868641      14.10890831       0.01103363       0.00528773      -0.00490207
H       17.17063888      13.80255732      13.81233133      -0.00233148       0.00138325      -0.00781101
H       14.40581708      13.77777839      13.82949541       0.00009153       0.00107318      -0.01314502
H       11.76871255      13.88886128      14.61922636      -0.00802287      -0.00371319      -0.01038829
H       10.29024988      13.61469992      16.61395437       0.02546318      -0.01490777      -0.00644421
H       11.25216510      13.08525644      18.83192378       0.01362993       0.00401092      -0.00806812
H       13.66092505      12.88090887      19.15487195       0.01494325       0.01132931      -0.01299076
H       15.47597442      13.27231096      19.38856115      -0.00785935       0.01577783      -0.01023042
H       16.81587918      12.10895119      19.47467856      -0.02126045      -0.00310435      -0.02196082
H       17.12008434      13.86657432      19.60220518       0.01298356      -0.00225794      -0.00770457
91
Lattice="32.36662010585383 0.0 0.0 0.0 25.041469847696504 0.0 0.0 0.0 32.10023026057303" Properties=species:S:1:pos:R:3:forces:R:3 energy=-12182.831791107941 pbc="F F F"
N       21.05084190      10.69236247      13.57173530       0.00938298      -0.00599273      -0.01296916
C       21.02065452      10.33812805      14.91788340       0.00283953      -0.02141935      -0.00031110
N       19.79693458      10.28418778      15.40817874       0.00949868      -0.00347048       0.00496583