91
Lattice="32.42682222 0.0 0.0 0.0 25.2893887 0.0 0.0 0.0 35.795545860000004" Properties=species:S:1:pos:R:3:forces:R:3 energy=-12181.794281182147 free_energy=-12181.794281182147 pbc="F F F"
N       21.04907017      11.01768166      13.44817268       0.00139251      -0.00606780      -0.00309818
C       21.05867811      10.79779030      14.82230459      -0.00305396       0.01421409      -0.00228108
N       19.85033224      10.81202989      15.35302408      -0.00590891       0.00602872       0.00491698
C       19.00032968      11.04101692      14.27277717       0.01576806       0.01496331      -0.02179833
C       17.59280694      11.14260607      14.17840447      -0.01721919       0.00749939       0.00467169
N       16.76764835      11.03345248      15.24350403       0.02182455       0.01809028      -0.02587918
N       17.06156686      11.35995479      12.94715204       0.01641804      -0.00542194      -0.01116579
C       17.87508104      11.48344171      11.87316812       0.00039081      -0.00757910      -0.00576801
N       19.21662639      11.40830136      11.84912572      -0.00356921      -0.00647969      -0.01350703
C       19.72033412      11.17389792      13.07619051       0.00622413      -0.00160488      -0.00461256
H       21.98059430      10.63781022      15.36508587       0.01090199       0.00245849      -0.00651826
H       17.17987824      10.86524138      16.15004416      -0.02123320      -0.03857272       0.00770868
H       15.74680749      11.06761934      15.12013270       0.00870061      -0.01014043      -0.00155397
H       17.36682503      11.68229512      10.93264582       0.00560603      -0.01050861      -0.00377592
N       19.91858736      14.72241894      11.26415998       0.00346019      -0.00794111      -0.00098319
C       18.52654764      14.67842956      11.44259761      -0.02847446      -0.00695689      -0.01100792
O       17.73068988      14.72132457      10.50712164       0.02039708       0.04379155       0.01718217
N       18.15049198      14.58074552      12.77767930      -0.00362526      -0.00012907      -0.00142542
C       18.99494087      14.49032539      13.88447157      -0.01140490       0.00113283       0.03993489
O       18.52248952      14.38111234      15.03768174      -0.00301128      -0.05114490      -0.03125742
C       20.42916859      14.52170030      13.60361132       0.00449017       0.01245597      -0.01221840
C       21.38434429      14.43190236      14.76404669       0.00433591       0.00470460      -0.00817971
C       20.81951682      14.62708512      12.30637721      -0.00823730       0.00125984       0.00477043
H       21.86596746      14.64500383      12.01707332      -0.00303750       0.00502496      -0.00395847
H       21.26055662      15.29027309      15.43473504      -0.00272897      -0.00187073       0.01009981
H       22.42419073      14.40687004      14.42418947       0.01437041      -0.00272023      -0.01243643
H       21.18340385      13.53436176      15.35865344      -0.00987355       0.00648587      -0.00791951
H       17.11384614      14.51225692      12.94952892      -0.01579686      -0.00013061       0.00132515
N       11.36873480      14.59227531      13.75216004      -0.01458227       0.00097188       0.00211036
C       11.34453283      14.51881313      15.13961019       0.01330803       0.00154112       0.00069883
N       12.54918965      14.41566759      15.67028938       0.01477356       0.00503525       0.00811852
C       13.41248229      14.42692779      14.57342437      -0.01043508       0.00888316      -0.02241694
C       14.82227259      14.36523482      14.46689980       0.03618005       0.01049833      -0.00068597
N       15.64746260      14.26301366      15.53443197      -0.02628799       0.00489641      -0.03614046
N       15.35928891      14.42166818      13.22076506       0.00375587      -0.00264926      -0.01460592
C       14.55376456      14.51575983      12.13836260       0.00606266       0.00107421       0.00136011
N       13.21126956      14.57204448      12.12241099       0.00724177      -0.01233461       0.00602512
C       12.70143502      14.53684930      13.36863840       0.00386025      -0.00980259       0.00972237
H       10.41434856      14.54260958      15.69083312      -0.01040783       0.00762075       0.00638302
H       15.22958280      14.20130647      16.45073758       0.02846931       0.01610385       0.02282008
H       16.66909781      14.24624982      15.41015000      -0.00673886       0.01070762       0.00166453
H       15.06947119      14.53107776      11.18080124      -0.01220606      -0.00171544       0.00952337
N       12.51356584      11.42909373      10.94325626       0.00893510      -0.00657740       0.02483686
C       13.90501945      11.45586261      11.13777046       0.03595225       0.01910021      -0.03541129
O       14.70604954      11.61422220      10.22093002      -0.04678585       0.01729633      -0.01999239
N       14.27819913      11.29106732      12.46485635      -0.00138480      -0.01082537       0.00003702
C       13.43098959      11.14329190      13.56066052       0.00372759       0.00793854       0.04343879
O       13.90135127      11.04347138      14.71501803      -0.02839886      -0.01688598      -0.02810524
C       11.99766688      11.13234757      13.27060572      -0.01011009       0.00519671      -0.00170670
C       11.04208750      10.97141285      14.42273698      -0.01687878      -0.00229085       0.00372913
C       11.60921378      11.28759895      11.97755875       0.00404949      -0.00520803       0.00352961
H       10.56336249      11.30553590      11.68542222       0.00787220       0.00029311      -0.00203529
H       11.17724164       9.99850872      14.91023128       0.00597164       0.00431483      -0.00431020
H       10.00131600      11.05154643      14.09384626      -0.01009827      -0.00082430      -0.01334248
H       11.23312665      11.73430868      15.18495134       0.00352807      -0.00529956      -0.00318354
H       15.31561776      11.33479282      12.65050146       0.00433077      -0.00200495       0.01378934
H       10.57641642      14.68524597      13.12711189       0.01761720       0.00251300       0.00317428
H       20.23286798      14.73052457      10.30011452      -0.00721760       0.00288169       0.00201523
H       12.20066150      11.61315307       9.99583722       0.02981349      -0.01286734       0.02265399
H       21.84656129      11.04196938      12.82336537      -0.01834585      -0.00797042      -0.00043503
C       18.77469665      12.80506381      24.33358201       0.00643907      -0.04471714      -0.02649933
C       20.07595220      12.82756728      23.86101064       0.00375587       0.00460896      -0.02408455
C       20.35173458      12.90910805      22.47618358       0.00462439      -0.00355429      -0.00037332
C       19.31249543      12.97118011      21.57382445      -0.01394926      -0.01421872       0.01006073
C       17.95920800      12.93613269      22.01402515      -0.00904617       0.04679717       0.01218754
C       16.88940563      13.00839057      21.08992994      -0.00500748      -0.02805074      -0.00452566
C       15.60284090      13.00509427      21.57408598      -0.01626326      -0.05200828      -0.00101250
N       14.39329604      13.07315850      20.90290227       0.00787992      -0.00931151       0.01632496
C       13.35208957      13.03029649      21.82505021       0.00748860      -0.02161012       0.01162139
C       11.97822692      13.07464696      21.58070547      -0.03301142      -0.00920404       0.02749075
C       11.12681485      13.03869233      22.68437761      -0.01811959       0.01403514      -0.00601484
C       11.63342063      12.97799017      24.00271223      -0.00919169      -0.00898601       0.00631463
C       12.99862048      12.93866675      24.24916940      -0.00252791       0.02289825      -0.03146773
C       13.89461411      12.94885281      23.15139890       0.01689883      -0.00958867      -0.00405566
C       15.32441236      12.91638158      22.98356927       0.00739089      -0.02525698       0.00775239
N       16.35665749      12.79336646      23.86891215      -0.00005554       0.02841995       0.01226571
C       17.68870134      12.83964873      23.42744756       0.00587034       0.03567817       0.00060267
C       16.04239275      12.59785872      25.31071595      -0.00730553       0.00814680       0.00245335
H       18.61053790      12.76767903      25.40234409       0.02148003       0.01806509      -0.02326077
H       20.89508538      12.78353107      24.57256611      -0.00782490       0.03254297      -0.02115864
H       21.37982754      12.92905160      22.12934768      -0.00876901       0.00495092       0.00644884
H       19.50355398      13.05240756      20.50736107       0.02164612      -0.02128925       0.01830009
H       17.09446906      13.06758940      20.02455168       0.00808715       0.00610997       0.00552684
H       14.28497360      12.97284587      19.90009569      -0.01862713       0.09039639       0.00350904
H       11.59482135      13.14523360      20.56681853      -0.00670081      -0.02086399       0.03367374
H       10.05420572      13.06441974      22.52618326      -0.02803891       0.01621749       0.00995788
H       10.94248655      12.96802131      24.83873356      -0.01662115       0.00318508      -0.00386591
H       13.35263133      12.91545683      25.27264301      -0.03220770       0.01888887      -0.04807603
H       15.15192605      11.97977043      25.39290470       0.00493292      -0.04001768      -0.01319747
H       16.85798377      12.07665973      25.80309902      -0.01152163      -0.02863181      -0.01142187
H       15.87543712      13.56269462      25.79552442      -0.00471386       0.03545449      -0.00038052
91
Lattice="32.42682222 0.0 0.0 0.0 25.2893887 0.0 0.0 0.0 35.795545860000004" Properties=species:S:1:pos:R:3:forces:R:3 energy=-12181.924546273238 pbc="F F F"
N       21.05499039      11.00413022      13.39757509       0.01656716      -0.00565129       0.01144038
C       21.07815495      10.75852836      14.76621138      -0.02044953       0.01126657       0.00496891
N       19.87546340      10.77473045      15.31100540       0.01488566      -0.00341443       0.00334398
C       19.01470621      11.02978216      14.24323461      -0.02393903      -0.02154790       0.00476837
C       17.60521393      11.13396447      14.15873969       0.01592850      -0.05898163       0.01156277
N       16.78162298      11.01664737      15.22727308      -0.00991109       0.00703248       0.00448863
N       17.06875958      11.35972653      12.93175145       0.01156894       0.06345380       0.02556037
C       17.87671584      11.50365712      11.85621349       0.02877630      -0.00553816      -0.05710935
N       19.21689118      11.43040976      11.82228296      -0.01883230       0.01745471       0.03304999
C       19.72555782      11.17603822      13.04252066       0.01180034      -0.00411428      -0.00506662
H       22.00658640      10.59401871      15.29614813       0.00524762      -0.02504975       0.00219624
H       17.18285470      10.71596860      16.10418767       0.00468558       0.00131640       0.01654556
H       15.75993598      11.03588715      15.10142547       0.01806252      -0.00694661      -0.00537361
H       17.36194069      11.71369689      10.92013696       0.02086245      -0.01756475       0.03548328
N       19.89817706      14.74064096      11.26134511      -0.00004011       0.00067209      -0.00301539
C       18.50698918      14.68673044      11.43226661       0.01059243      -0.00226309       0.00527230
O       17.71850720      14.72590316      10.49282361      -0.00431225      -0.00167276      -0.00543840
N       18.12306186      14.58448254      12.76469402      -0.00732662      -0.00263949       0.00576339
C       18.96252380      14.49075378      13.87205576       0.02974252       0.00304676      -0.04109343
O       18.48392613      14.37625664      15.02192206      -0.01066339      -0.00094359       0.02340218
C       20.40049986      14.53201004      13.60127262      -0.01231816      -0.00123876       0.01595215
C       21.35035636      14.42618372      14.76424677       0.00129224       0.00021289      -0.00244461
C       20.79597815      14.64765430      12.30606460       0.00417136      -0.00105415      -0.00619070
H       21.84303508      14.67611545      12.02008938      -0.00021597      -0.00052296       0.00209853
H       21.21721720      15.26748226      15.45458048       0.00003702       0.00017072       0.00009102
H       22.39212799      14.41444734      14.42834024      -0.00074511       0.00134572      -0.00186816
H       21.15162458      13.51341088      15.33619564       0.00049057       0.00013730      -0.00068854
H       17.08442834      14.51060645      12.92664607       0.00466450      -0.00095594       0.00067003
N       11.34950410      14.62027178      13.78162964      -0.06929946       0.02871820       0.04127546
C       11.34814477      14.57663432      15.17034029       0.02027675       0.00201317       0.00830004
N       12.56070800      14.47662415      15.68496022      -0.00194427      -0.00197358       0.00381860
C       13.40632464      14.46638622      14.57476563       0.00465678      -0.00285444       0.00549959
C       14.81455614      14.40084713      14.45065036       0.00395436       0.00382889      -0.01726804
N       15.65228641      14.31668993      15.51010962       0.00498743      -0.00237056       0.00699392
N       15.32987716      14.41872011      13.19390344       0.02080383      -0.00804498       0.03790629
C       14.50466983      14.48956079      12.12499213      -0.03614303       0.01142855      -0.05822726
N       13.16355080      14.55667839      12.12734684       0.01946531      -0.00503576       0.00992600
C       12.67478539      14.55222977      13.38038377       0.00469792      -0.00033784      -0.01634142
H       10.42965528      14.62448471      15.73973073      -0.01757041      -0.00816171      -0.01687158
H       15.26001709      14.46756815      16.42828285       0.00680931       0.00113129       0.00984630
H       16.67376953      14.34035235      15.36972278       0.00478482       0.00040161       0.00437242
H       15.00082867      14.48258672      11.15747165       0.01666949      -0.01474528       0.01144347
N       12.52085027      11.41532524      10.96208192       0.01199574      -0.00423306      -0.00862245
C       13.91060074      11.45548926      11.15543123       0.00040881       0.00284158      -0.00688696
O       14.70446785      11.61458890      10.23232520       0.00029979      -0.00054662       0.00525842
N       14.28412110      11.30470895      12.48607172       0.00892533       0.00560398       0.00200289
C       13.43442132      11.17025835      13.58432742      -0.00102073      -0.00018152       0.00459662
O       13.90189444      11.08343536      14.74141505       0.00402018       0.00010799      -0.00017535
C       12.00194161      11.15184491      13.28989759       0.00754516      -0.00240861       0.00873301
C       11.03868207      10.99901339      14.43650506       0.00041703      -0.00030236       0.00145987
C       11.61739841      11.28322475      11.99318032      -0.01808514       0.00093382      -0.00951874
H       10.57244347      11.28858273      11.69704772       0.00692758      -0.00038875       0.00712710
H       11.18719654      10.03884622      14.94444250      -0.00214533       0.00083458       0.00327096
H        9.99998595      11.05388317      14.09512847       0.00119248       0.00010644       0.00004165
H       11.20904075      11.78081018      15.18443443      -0.00198438      -0.00043812       0.00173652
H       15.32225727      11.35159290      12.66812234      -0.00146142      -0.01240352       0.00031470
H       10.54659749      14.71731683      13.17086820       0.02544775      -0.00776268      -0.01232176
H       20.21511954      14.76198479      10.29835484       0.00281330      -0.00117551       0.00066694
H       12.21184072      11.57566542      10.00971868      -0.00117499      -0.00025300      -0.00050651
H       21.84292244      11.02940654      12.76111487       0.00434054      -0.01118944       0.00384483
C       18.89137988      12.63437425      23.32630096      -0.00699597       0.00178280       0.00432100
C       20.17812286      12.64684892      22.81954822       0.01799567       0.00025145      -0.00962570
C       20.41761200      12.71124632      21.42790173      -0.00408857       0.00561375       0.00381397
C       19.35590444      12.78086851      20.55298990       0.00200392       0.00689827      -0.00798893
C       18.01480565      12.77311093      21.03005900      -0.00004165       0.00000411       0.00596445
C       16.92043836      12.82587679      20.13478584       0.00126395       0.00149381      -0.00568574
C       15.64828794      12.81511209      20.65607444       0.00020877      -0.00023911      -0.00143930
N       14.42116508      12.85945231      20.01909996       0.00096828       0.00699134      -0.00153958
C       13.40691495      12.83441727      20.96834151       0.00374044       0.00053942      -0.00665453
C       12.02575938      12.86485124      20.76044208       0.01062483       0.00025865      -0.01143421
C       11.20766863      12.86143532      21.88481606       0.00022523       0.00064483      -0.00227851
C       11.74678656      12.84693418      23.19151291       0.00368850      -0.00501005      -0.00679080
C       13.11728948      12.80882438      23.40082290       0.00089320      -0.00574230      -0.00541063
C       13.98478888      12.77731346      22.28065287      -0.00157352       0.00020466      -0.00405720
C       15.40881645      12.73855787      22.07577338      -0.00340774      -0.00257727      -0.00643290
N       16.46627744      12.61724298      22.93175755       0.00295985       0.00273257       0.00045457
C       17.78294949      12.67463489      22.45004440      -0.00052553       0.00410657      -0.00345042
C       16.21151194      12.38158015      24.38190508      -0.00791900       0.00789534       0.00459662
H       18.75607890      12.61425455      24.39898429       0.00326582       0.00076825       0.00091274
H       21.01642019      12.62122042      23.50871880      -0.00072762      -0.00982779      -0.00679851
H       21.43633393      12.71457715      21.05481814      -0.00154626      -0.00051473      -0.00510878
H       19.52329992      12.83765881      19.48118195      -0.00496172       0.00749477       0.00362474
H       17.09573076      12.87241454      19.06327602       0.00416827       0.00488921       0.00187073
H       14.27918421      12.90870719      19.01626419       0.00479511      -0.00183525      -0.00700317
H       11.61430357      12.89713760      19.75680331      -0.00183114       0.00268115      -0.00328381
H       10.12963634      12.88028679      21.75759802       0.00642673       0.01216235      -0.00236130
H       11.07612101      12.87337253      24.04385433       0.00176840      -0.00451383      -0.00293363
H       13.49842526      12.82527063      24.41373729       0.00232016      -0.00328536      -0.00531139
H       15.28685111      11.81801277      24.48207223       0.00192164       0.00165168      -0.00084846
H       17.01249959      11.78047425      24.80439309       0.00579681      -0.00092868      -0.01090559
H       16.13381084      13.33408355      24.91357915       0.00724845      -0.00902200      -0.00015581
91
Lattice="32.42682222 0.0 0.0 0.0 25.2893887 0.0 0.0 0.0 35.795545860000004" Properties=species:S:1:pos:R:3:forces:R:3 energy=-12182.156304530396 pbc="F F F"
N       21.05232803      10.92048091      13.35821725      -0.00312286       0.00243329      -0.01512220
C       21.07896164      10.66996969      14.72413646       0.02133399      -0.01016254       0.00973317
N       19.88627139      10.73965545      15.28613591      -0.00372296      -0.01075441       0.00266932
C       19.02508782      11.03465412      14.22923197      -0.00427729      -0.01208316       0.00299379
C       17.62148416      11.18583117      14.16082507       0.00025711      -0.00340825       0.00771125
N       16.81089931      11.09852856      15.24621252       0.00775959      -0.01114162      -0.00402686
N       17.07783935      11.43877353      12.94379551      -0.00411582       0.00274542       0.01040166
C       17.87726866      11.54726658      11.85650429       0.00898344      -0.00944161      -0.02650602
N       19.21332193      11.42384083      11.80682212      -0.01180239       0.00940252       0.00503165
C       19.72680456      11.15184925      13.02009632       0.01550581      -0.00316657      -0.00195661
H       22.00339816      10.45026665      15.24209844      -0.00176172      -0.00031727      -0.00839157
H       17.20792236      10.70386095      16.08872928      -0.01074053      -0.00241272       0.00449583
H       15.79094082      11.08351275      15.11411124      -0.00425723      -0.00275057      -0.00651878
H       17.36045018      11.76771706      10.92585836      -0.00375175       0.00254848       0.00303442
N       19.90363355      14.72593580      11.34308212       0.00429477       0.01015534      -0.00291049
C       18.51351858      14.67157627      11.52141273       0.00789123       0.00893253       0.00718058
O       17.71851233      14.68652977      10.58680885       0.00473752       0.00324165      -0.02792938
N       18.13666393      14.59592916      12.85752523      -0.00148713       0.00287295       0.00346842
C       18.98207214      14.50665755      13.96180098      -0.00343705       0.00610483       0.00314189
O       18.50420804      14.42015682      15.11503781      -0.01057649       0.00850058       0.01706544
C       20.41590882      14.51180047      13.67920714      -0.00637377      -0.00092200       0.00939738
C       21.37510674      14.37857425      14.83205741      -0.00165836      -0.00034761       0.00272023
C       20.80559913      14.62190472      12.38211639      -0.00857669       0.00146553      -0.00038875
H       21.85123127      14.63554102      12.08983117      -0.00410759      -0.00774519       0.00628995
H       21.25348399      15.20577630      15.54090995      -0.00319177      -0.00073688      -0.00006479
H       22.41353603      14.36691404      14.48614335      -0.00237776       0.00187125       0.00154832
H       21.17726751      13.45350523      15.38495795      -0.00003651       0.00022883       0.00390859
H       17.10173241      14.51333181      13.02599954       0.00441407      -0.00362988       0.01465580
N       11.36767760      14.65788171      13.87733380      -0.00727879       0.00274440       0.00966683
C       11.35986061      14.61925960      15.26528055       0.00631309      -0.00522808       0.02279540
N       12.57089761      14.51003388      15.78530241       0.01177051       0.00259733       0.00374455
C       13.42031910      14.48785554      14.67703187      -0.05573329       0.00418936      -0.02326231
C       14.82338930      14.40292841      14.55777887       0.01892692       0.01104340       0.01000673
N       15.65712129      14.32375111      15.63554795       0.00752305      -0.01703613       0.00684633
N       15.34621642      14.38608731      13.30732653       0.01868935       0.01155505       0.03635386
C       14.53069548      14.46342609      12.22923569      -0.00000309      -0.00154112       0.02051278
N       13.19027647      14.55837802      12.22789999      -0.00525636      -0.00104027       0.01792008
C       12.69382972      14.57204337      13.47753974       0.00661545       0.00105621       0.01378471
H       10.43637538      14.67322086      15.82633225       0.00449017       0.00060112       0.00545794
H       15.29451088      14.69294923      16.50552369       0.00053736       0.01613522       0.01543896
H       16.67357848      14.39244004      15.46898454       0.00046537      -0.00261533       0.01639850
H       15.03487586      14.43712598      11.26572871      -0.01231404      -0.01428916       0.01552124
N       12.52023902      11.41530016      10.96173457       0.01344687       0.01425985      -0.00113951
C       13.90807819      11.46483828      11.15230241       0.00624418       0.00572739      -0.00759710
O       14.70369164      11.61963516      10.23040777      -0.00194221      -0.00444235      -0.00130149
N       14.27754717      11.32741327      12.48409224      -0.00436830      -0.03013745       0.03983565
C       13.43279262      11.18131815      13.58533099       0.00789329       0.00705665       0.00239215
O       13.90639134      11.08768763      14.74002150      -0.00770097       0.01322318      -0.00710910
C       12.00087201      11.16174144      13.29215907       0.00751791      -0.00248369       0.00920146
C       11.03769592      11.01019831      14.43922752      -0.00014295      -0.00084435      -0.00016095
C       11.61736047      11.28339284      11.99352591      -0.01964477       0.00139817      -0.00941847
H       10.57274879      11.27938312      11.69669085       0.00436625       0.00265132       0.00424901
H       11.19388000      10.05520630      14.95427650      -0.00296037       0.00184194       0.00590840
H        9.99892715      11.05378957      14.09692381      -0.00019695       0.00115751       0.00017484
H       11.19983600      11.79886773      15.18227331       0.00067157       0.00220601      -0.00270531
H       15.31237502      11.38300432      12.66894389       0.01026539       0.01300824       0.00318920
H       10.56846965      14.75852325      13.26179383       0.01507489      -0.00903691       0.00218698
H       20.21701770      14.73632848      10.37855885      -0.00745003      -0.00702271      -0.00094154
H       12.20816135      11.55572970      10.00689975       0.00040469      -0.00224612       0.00390962
H       21.83177358      10.88928725      12.71118711      -0.00631052       0.00225897      -0.00008742
C       18.99352847      12.44075597      22.34127982       0.01600306      -0.00105415      -0.03068715
C       20.26652423      12.47106062      21.79403626      -0.01349675      -0.00808098      -0.01207442
C       20.46390224      12.57011416      20.40017959       0.01015380      -0.00343448      -0.02967825
C       19.37639416      12.64474955      19.55709389      -0.00997331       0.00095285      -0.02692202
C       18.05069011      12.61986183      20.07484631       0.00033527      -0.00211859      -0.01725313
C       16.93021009      12.71068261      19.21589393      -0.00593154       0.00274337      -0.01829803
C       15.67431517      12.68925811      19.77669075       0.01843738       0.00146142      -0.01439252
N       14.43636817      12.77582766      19.16875119      -0.00649358      -0.00303339      -0.01604060
C       13.44654101      12.69478340      20.13667899      -0.00252174      -0.01872020      -0.02393594
C       12.06282872      12.72814895      19.94883169      -0.01592233       0.01425368       0.00483727
C       11.25551479      12.61602323      21.07513286       0.02790727       0.02536651      -0.01568322
C       11.81326320      12.48537899      22.36687815       0.00022831       0.01898451      -0.00192370
C       13.18715788      12.46227730      22.55640916      -0.00991263      -0.00911302      -0.01884105
C       14.04859947      12.55765284      21.43328079       0.03709382      -0.01169543      -0.01934550
C       15.47151154      12.55801834      21.20060398      -0.00798070      -0.01475813      -0.01550427
N       16.55908322      12.45575157      22.02286780      -0.00123773       0.00056101      -0.01909661
C       17.86019048      12.50367030      21.49817551       0.00289403       0.00035018      -0.01647254
C       16.39327893      12.29319584      23.49250692      -0.03879846      -0.00441870      -0.01113751
H       18.88963371      12.37634461      23.41625571       0.00688490      -0.00577933      -0.01700682
H       21.12244579      12.42469702      22.46064071       0.00652340      -0.00435185      -0.03007317
H       21.47251358      12.58947534      20.00102750      -0.00877929       0.00127681      -0.02726912
H       19.51057455      12.72260629      18.48227900      -0.00920404      -0.00041498      -0.02009214
H       17.06922561      12.79936622      18.14094723      -0.00214070       0.00232428      -0.01589353
H       14.27329726      12.85445594      18.16856480      -0.00316246       0.00063712      -0.00916701
H       11.64499640      12.84410257      18.95422314       0.00171390      -0.00806195      -0.01206105
H       10.17642120      12.63909890      20.96233328      -0.00824913      -0.00905645      -0.00237724
H       11.15326775      12.40898967      23.22493054       0.01965557      -0.00056667      -0.00184657
H       13.56258567      12.37316489      23.56745471       0.00934339       0.01241174      -0.01573978
H       15.34958169      12.12854482      23.72299768       0.02454530      -0.00771074      -0.01193300
H       16.95878899      11.42410813      23.83288449       0.02190631      -0.00056050      -0.02221330
H       16.73885021      13.19181446      24.01035092       0.01001856       0.00127424      -0.01761617
91
Lattice="32.42682222 0.0 0.0 0.0 25.2893887 0.0 0.0 0.0 35.795545860000004" Properties=species:S:1:pos:R:3:forces:R:3 energy=-12182.577653707232 pbc="F F F"
N       21.04897962      10.93002081      13.38720256       0.00186662       0.00671058       0.00196844
C       21.08122926      10.70223695      14.75798333       0.00515866       0.00713738       0.01398732
N       19.88554062      10.75178548      15.31717335      -0.00891144       0.00371833       0.00885077