89
Lattice="35.19175061832372 0.0 0.0 0.0 24.384438681895567 0.0 0.0 0.0 31.287594328174045" Properties=species:S:1:pos:R:3:forces:R:3 energy=-12383.370131202571 free_energy=-12383.370131202571 pbc="F F F"
N       17.13335671      10.21996672      20.09111374      -0.03726146      -0.01981395       0.00216178
C       15.99046737      10.38877521      19.30727407       0.01932441      -0.02302577       0.00843579
N       16.27854535      10.58443204      18.03879255      -0.00552273       0.02767998      -0.01932596
C       17.66818695      10.54361360      17.96851699       0.03238613       0.02734471      -0.04361928
C       18.56119868      10.75120367      16.87349645      -0.03068715       0.02696625      -0.05052270
O       18.27970897      11.05540201      15.67830161       0.05803083       0.03090415      -0.02845286
N       19.90989330      10.60914251      17.26653606      -0.01903748       0.01734055      -0.03410826
C       20.34701815      10.32973677      18.55447437      -0.00297322       0.00763309      -0.07287792
N       21.68162954      10.16598128      18.73065772      -0.01953421      -0.03490273       0.00315680
N       19.51421826      10.19679169      19.58941085       0.00786243      -0.04764409       0.04297342
C       18.22045916      10.30701677      19.24046860      -0.00453697      -0.00451383      -0.02181273
H       14.99824319      10.36886695      19.73767112      -0.00387517      -0.00155140      -0.02410975
H       20.62882388      10.73033000      16.51856358      -0.00448760      -0.00463776       0.02950135
H       21.98825918      10.08231337      19.69082032       0.03117874       0.01056261       0.01675485
H       22.36768847      10.46357852      18.02365218      -0.00634754       0.02096015       0.00759504
N       18.99679054      13.56291671      20.45491983       0.00639948      -0.00932385       0.02380482
C       17.61116795      13.67525088      20.36901169       0.01663247      -0.00008896       0.01179571
N       17.19557768      13.84908367      19.13189248       0.01320930       0.01893309      -0.01761669
C       18.36089790      13.85785638      18.36013361      -0.04610914      -0.00252842      -0.04915178
C       18.55378446      13.98061607      16.94967227      -0.04612251       0.00443001       0.02101928
O       17.67628582      14.10275449      16.05778372       0.00014604       0.04295028       0.02780905
N       19.92090367      13.92261555      16.60351339       0.02777100       0.00557775      -0.03130010
C       20.97166197      13.73400238      17.49236307      -0.04141533       0.01707830      -0.04613999
N       22.22122554      13.71344050      16.97208807      -0.01715852       0.02383104      -0.00156117
N       20.78740841      13.58995195      18.80601458       0.01996822       0.00186971       0.03465436
C       19.49374538      13.67124100      19.16957769      -0.00097651      -0.00734153       0.00745209
H       16.98185225      13.63466008      21.24754251       0.00007713      -0.02079406       0.00712196
H       20.14335781      13.95952858      15.58834221      -0.02658264       0.00179720       0.02518859
H       22.95768958      13.34060592      17.55892733      -0.03891776       0.00679594       0.00766703
H       22.38354577      13.71906408      15.95889850       0.01059912      -0.00377747       0.01208470
N       22.12757372      14.13374729      11.96415512       0.01241483       0.01749636       0.01712766
C       21.86004435      13.99016214      13.35344195      -0.00221372      -0.06390323       0.06379422
O       22.81859784      13.82836899      14.13099546      -0.06885980      -0.06143703      -0.03704189
N       20.55030942      14.01568070      13.74177963       0.01612339       0.01122801       0.01545850
C       19.56023417      14.14187980      12.83979880       0.02148311       0.00352653       0.00434876
N       18.29049443      14.11650516      13.29853441      -0.01716623       0.00123207       0.00681805
C       19.83002796      14.27231017      11.42753457      -0.02657904      -0.00642930       0.00703197
C       21.13289573      14.27361128      11.03526903       0.00589400       0.00125624       0.02494484
H       21.44219353      14.38216579      10.00045375      -0.01039446      -0.00178949       0.02384955
H       19.03104420      14.38469676      10.70496149      -0.00445675       0.00358515      -0.00355944
H       18.09059693      14.11437736      14.32076693       0.00556901       0.00469792      -0.00300305
H       17.52766533      14.32060369      12.66586348       0.00149998      -0.00938864      -0.00128195
N       24.21998473      10.90343889      14.53923430       0.02562979      -0.04009019      -0.05121586
C       23.24960900      10.90655263      15.57119022      -0.03741521       0.00045354       0.01264726
O       23.63644250      10.97302808      16.75330509      -0.03650453       0.04444306       0.01640981
N       21.93544564      10.83985758      15.19958634      -0.03629010      -0.01024636       0.01043919
C       21.58913303      10.75710103      13.90405754       0.00486144      -0.01449280      -0.03107538
N       20.27201874      10.72662052      13.60733705      -0.02801834       0.00508307      -0.00268115
C       22.57593847      10.70141042      12.85574862      -0.02649059       0.00014038      -0.01454627
C       23.88391244      10.78702451      13.22168859      -0.01408553      -0.00320719       0.00561272
H       24.70147318      10.76530986      12.50823256      -0.01346435       0.01028493       0.02483686
H       22.29356562      10.60311953      11.81489277      -0.00498794       0.00126704      -0.00372244
H       19.55868191      10.86412050      14.34274148      -0.00897726      -0.00877878       0.01265240
H       19.97909316      10.72716364      12.64023188      -0.00644010      -0.01829134       0.00961181
C       10.95803659      12.56249533      18.09233549       0.00763618       0.00425055      -0.00600507
C       11.00017650      12.93599053      19.42567619       0.00026328       0.00598141      -0.00520546
C       12.21835993      13.28757427      20.05138414      -0.00430557      -0.00371267      -0.00135291
C       13.38718561      13.27407432      19.32191779       0.00438270      -0.00284518       0.00463313
C       13.39180965      12.88445699      17.95265135       0.01791956       0.01571407       0.00194324
C       14.60602742      12.83766165      17.23149830      -0.01087422       0.00410245      -0.01333374
C       14.55979873      12.40577506      15.92706136       0.02584936       0.01295733      -0.01118070
N       15.59430100      12.21878880      15.03395517       0.01060117       0.00662779       0.01865027
C       15.06767354      11.83699727      13.82022274      -0.00003908      -0.00412405      -0.01089634
C       15.74682563      11.57589058      12.62346610       0.00560758      -0.01651985       0.00389676
C       14.98612834      11.28685699      11.49669360      -0.03030560      -0.02941239      -0.00962158
C       13.57189638      11.26462650      11.54261964       0.03314306      -0.00792928      -0.01336922
C       12.89225110      11.51093530      12.72707460       0.01622880       0.00214739      -0.01084029
C       13.63083609      11.78161959      13.90275468       0.00835969       0.00269092      -0.00816840
C       13.32160124      12.09536016      15.27235200       0.03416894       0.01701196       0.01817976
N       12.15226877      12.11262201      15.98558706      -0.01561894      -0.00227748       0.00875769
C       12.14955321      12.51008490      17.32960446       0.02404290       0.00793545      -0.00785369
C       10.89231870      11.66190471      15.34132203       0.00947092      -0.00655837       0.00319434
H        9.99977841      12.32649164      17.64945309      -0.00652083       0.00148764      -0.00684016
H       10.07603354      12.96407472      19.99443835      -0.00460330       0.00534430      -0.00226514
H       12.22487475      13.57149812      21.09887613      -0.00262664       0.02112470      -0.00498794
H       14.33857283      13.55343628      19.76434311      -0.00005091       0.00747008      -0.00164756
H       15.53157601      13.14884005      17.70007409       0.06664968      -0.00252534       0.04330869
H       16.57820169      12.12652154      15.31460706       0.00702683      -0.00724794      -0.00538698
H       16.83018591      11.61660479      12.59259411       0.01379705      -0.00523837       0.00375947
H       15.48421798      11.08334770      10.55493350       0.02490679      -0.00972443      -0.04268700
H       13.01257628      11.05772891      10.63594767       0.00430197       0.00722994       0.00543274
H       11.80934755      11.51784156      12.72317903       0.00388134      -0.00349156      -0.00577624
H       11.13744727      10.98671570      14.52684373      -0.00270943      -0.00604518       0.00601844
H       10.29076973      11.10658102      16.05922414      -0.00008433       0.00355995       0.00677846
H       10.32450474      12.51726148      14.96358955       0.00330027      -0.00055587      -0.00253357
H       17.18013146      10.00029913      21.07956709      -0.00344631       0.00296345      -0.00653677
H       25.19032553      10.97479696      14.83300085      -0.05782617      -0.00018923       0.00877518
H       19.55624593      13.41484144      21.28693281       0.00055536      -0.02208424      -0.00286678
H       23.10705655      14.13201722      11.69564374      -0.03195984       0.01215001       0.01189907
89
Lattice="35.19175061832372 0.0 0.0 0.0 24.384438681895567 0.0 0.0 0.0 31.287594328174045" Properties=species:S:1:pos:R:3:forces:R:3 energy=-12383.119826464674 pbc="F F F"
N       15.82200296      10.57744772      20.31407470      -0.00465627       0.00851652       0.00336660
C       14.68702756      10.40155334      19.51301049       0.02080383      -0.01727062       0.01623189
N       14.96044872      10.46351026      18.22898832       0.01739814       0.05827560       0.01781980
C       16.33832308      10.68300407      18.16856869       0.01384693       0.03941861      -0.01905239
C       17.21425368      10.83793889      17.05157862       0.01851143       0.01793653       0.02180553
O       16.92597659      10.83705449      15.83101054       0.02325923       0.02832482       0.00360417
N       18.55776845      11.02850391      17.45619625       0.02280620      -0.02282523       0.01162396
C       19.00838782      11.01598240      18.76776237      -0.01625452       0.00400115       0.00083818
N       20.34646288      11.07877587      18.95667044       0.01380271       0.03382852       0.00720475
N       18.18549149      10.92124494      19.81772628       0.10387566       0.00876386       0.01704899
C       16.89612835      10.74944873      19.45950876      -0.05737726       0.01739300      -0.02793298
H       13.70782846      10.24292688      19.94444527       0.00721400       0.00336763       0.00327404
H       19.25310690      11.10300339      16.68300493      -0.00504553      -0.02125325       0.00704020
H       20.66788431      11.21316875      19.90526863       0.01017694      -0.00591251       0.01519574
H       20.99676582      11.24838690      18.17873130       0.02182507      -0.00029053       0.02008340
N       18.43014375      14.64382506      20.62950764      -0.00104130      -0.04481999      -0.00997382
C       17.05091492      14.85566083      20.63596205       0.01004273       0.00519414       0.00226103
N       16.55737780      14.99776216      19.42329826       0.00694764       0.02467951       0.01107066
C       17.65825591      14.87171319      18.57290790      -0.00218595       0.01102181       0.00733896
C       17.76677788      14.96217195      17.15542011       0.00226206      -0.01497308       0.02203847
O       16.85071136      15.17514404      16.31572966       0.00749477      -0.02087016      -0.00659642
N       19.08492725      14.74855417      16.71022820      -0.00342625      -0.00222915       0.00490155
C       20.17703933      14.49811689      17.52802049       0.01112362       0.00340003      -0.03072417
N       21.37399837      14.33596123      16.91072834       0.01288534       0.00342111       0.00333009
N       20.08786352      14.44422922      18.85810438       0.01633525      -0.01674868      -0.00766754
C       18.83349512      14.63694054      19.30967530       0.01411793      -0.00293003      -0.00343294
H       16.48572761      14.91116147      21.55680316       0.01750973      -0.03029223       0.00219778
H       19.20589501      14.75586279      15.67717228       0.00203734      -0.00271149      -0.00326479
H       22.09373472      13.88429114      17.46212190       0.00856126      -0.00675789       0.00221526
H       21.39548296      14.15284772      15.90195545       0.02232849       0.00977945      -0.00933979
N       20.70199140      14.53992271      11.90938148      -0.00797916      -0.00528259       0.00060164
C       20.48897100      14.39144774      13.30705901       0.00478277       0.03136129       0.01024070
O       21.41437475      13.93833708      14.00431270       0.00983036       0.06640954      -0.00210008
N       19.26847566      14.76559169      13.79270652       0.00286627       0.00713327       0.02160498
C       18.33705575      15.31291051      12.98566605       0.00118888      -0.00783878       0.01045873
N       17.17199539      15.68832619      13.55205658      -0.00821827      -0.01688289       0.00274851
C       18.56016425      15.48571304      11.57135398       0.00239575      -0.00688490       0.00810617
C       19.76506579      15.08997130      11.07781133      -0.00337123      -0.02315484      -0.00592228
H       20.03864689      15.18760837      10.03286266      -0.00200443       0.00445572      -0.00539520
H       17.81242671      15.93031361      10.92598420      -0.00656557      -0.01099455       0.01127583
H       17.04386390      15.59485567      14.57619973      -0.00685405      -0.00917987       0.00184091
H       16.45623527      16.14155198      12.99984427       0.01527955      -0.01758892      -0.00193758
N       22.73786351      11.12854519      14.54320597      -0.01266474      -0.00505530      -0.00198849
C       21.78309363      11.23312682      15.58651179       0.01019288       0.01340110      -0.00804344
O       22.19130221      11.41550208      16.75029920       0.02222153      -0.01012346      -0.00958045
N       20.46551142      11.12099684      15.24665927      -0.00102227       0.00388802       0.00565694
C       20.09818027      10.93271935      13.96683254      -0.00532938       0.01726599       0.01237215
N       18.76958827      10.87216835      13.70517956      -0.00874484      -0.00343345      -0.00492983
C       21.06481743      10.83000609      12.90446362      -0.02563647      -0.03164000       0.00102484
C       22.37926793      10.93920373      13.24111743      -0.00624470      -0.01848675       0.00410554
H       23.18421891      10.87945360      12.51596365      -0.00707311      -0.00074048       0.01821113
H       20.76408875      10.67132830      11.87634389      -0.00926060       0.00029671      -0.00696563
H       18.09563436      10.84333595      14.49523067      -0.00346739      -0.01855462       0.00534070
H       18.45805691      10.52390438      12.80777914       0.01517825       0.03150476      -0.01875620
C       10.85183632      12.88781105      17.90881589       0.00648535       0.00516792       0.00353887
C       10.85953228      13.25112817      19.24798409      -0.03045729      -0.04967680       0.00841882
C       12.05153372      13.65089720      19.89296579       0.00722891       0.00075076       0.01278507
C       13.22897670      13.69670719      19.18040204      -0.00514426       0.00152929       0.00666841
C       13.26285053      13.33366317      17.80589091      -0.00654449       0.00740375       0.00679440
C       14.47498124      13.39909642      17.09140949      -0.00463004       0.00324165       0.00957273
C       14.45682025      13.08594137      15.75500405      -0.00539263      -0.01032966       0.00108706
N       15.47586954      13.10881050      14.82983793       0.00122642      -0.00053736       0.00887185
C       15.00469131      12.68702741      13.61083336      -0.00561838      -0.01051273       0.00625858
C       15.70674625      12.54943594      12.40655037      -0.01212584       0.00503473       0.00252277
C       14.98517388      12.16897837      11.28002945       0.00097188      -0.00217721       0.00516895
C       13.59153664      11.93490253      11.34217611      -0.00571145      -0.00234073      -0.01254956
C       12.89540415      12.05138141      12.53827189       0.00675686      -0.00337277      -0.00345351
C       13.59575601      12.41273047      13.71269954      -0.01351372       0.00753436      -0.00341237
C       13.26210263      12.65011515      15.09474790      -0.00424386       0.00754825       0.00562866
N       12.10105768      12.52749225      15.80700338      -0.00482442       0.00122385       0.01470054
C       12.05252874      12.90552156      17.15864612      -0.00384329       0.00843065       0.00651055
C       10.90437951      11.98028032      15.12243523      -0.01334660      -0.00771845      -0.00017175
H        9.91061944      12.61621482      17.44904015      -0.00210059      -0.00151078       0.01441618
H        9.92486753      13.23444823      19.80092611       0.01490006       0.00715487      -0.00477865
H       12.03141561      13.93506306      20.94005098      -0.01245391       0.00585903       0.00784598
H       14.16015309      14.03208211      19.62641349      -0.01066185       0.00280867       0.02199579
H       15.37675718      13.71152253      17.59509573       0.00496686       0.01696105      -0.00799150
H       16.44085129      13.29666381      15.07175980      -0.00528310       0.01834482       0.00516586
H       16.77409181      12.74127718      12.36966494      -0.00093177       0.02010449      -0.00382992
H       15.49702211      12.05803246      10.32822779      -0.00050702       0.00058364       0.00987766
H       13.05665335      11.66536322      10.43783271      -0.00052245      -0.01781055      -0.00747523
H       11.82685005      11.87834244      12.54741263       0.00016712       0.00086029      -0.01032504
H       11.22214420      11.20668859      14.42419108      -0.00201780       0.01467020       0.04439267
H       10.23680494      11.52321803      15.84762760       0.00439093      -0.02825077       0.00308841
H       10.37770807      12.77709437      14.58933052      -0.01182039      -0.00850161      -0.02146049
H       15.88286171      10.49620382      21.32280092      -0.00161465       0.02128462      -0.00524197
H       23.71005459      11.22695185      14.81762312       0.00589708       0.00285033      -0.00586880
H       19.03493459      14.47141031      21.42382703      -0.00330078       0.00707156       0.03689379
H       21.62415812      14.28280658      11.57132034      -0.01812782       0.00329513      -0.00697695
89
Lattice="35.19175061832372 0.0 0.0 0.0 24.384438681895567 0.0 0.0 0.0 31.287594328174045" Properties=species:S:1:pos:R:3:forces:R:3 energy=-12383.119322344523 pbc="F F F"
N       14.54692485      10.47142191      20.20302048       0.00304264       0.00149741      -0.00964369
C       13.43956613      10.18495637      19.40071683      -0.00263692      -0.01879991      -0.01637381
N       13.74961466      10.09554766      18.12509565       0.00413279      -0.00660568      -0.01994816
C       15.12501273      10.31915379      18.07641003      -0.00783981      -0.00297065      -0.00081710
C       16.02359823      10.37476620      16.96828406      -0.01979544       0.01527698      -0.01567910
O       15.76769422      10.21230044      15.75315944       0.03113400       0.03951015      -0.02081565
N       17.33912150      10.71991513      17.37717258      -0.03149344       0.00098216      -0.00714304
C       17.73497179      10.96739315      18.68345317      -0.02431030      -0.02909049       0.04523136
N       19.04096744      11.27673180      18.87924726      -0.02964071      -0.00636194       0.01108094
N       16.89456995      10.91007682      19.72028742      -0.01332757      -0.02113601       0.00745877
C       15.63735981      10.57549892      19.36154077      -0.00322159      -0.02024744      -0.00705665
H       12.45195130      10.05645441      19.82221689       0.00082995       0.01978670      -0.00096108
H       18.03709175      10.83110856      16.61142750       0.00250168      -0.01758378       0.00963495
H       19.30199765      11.57867777      19.80877793      -0.00668744      -0.00878237       0.00395179
H       19.67618328      11.48072272      18.09680849      -0.01309360       0.03201332       0.01166150
N       17.20856597      15.90588047      20.45875193      -0.02017596      -0.01783677       0.00554330
C       15.97124308      16.56038742      20.43643382      -0.01954347       0.01814942      -0.02637078
N       15.53677590      16.77376757      19.21461099      -0.03543906       0.03103630      -0.01441823
C       16.53196555      16.26420815      18.38361584      -0.00090297       0.02489137       0.00484242
C       16.62786794      16.19924721      16.95666040      -0.01613624       0.01511655       0.00491852
O       15.78726616      16.52786499      16.09155002      -0.02860044       0.03716376       0.04247566
N       17.86204421      15.62677175      16.54909751      -0.00606986      -0.00170618      -0.00099502
C       18.85222073      15.14255128      17.39176340      -0.01864307       0.00143828      -0.01319387
N       19.97989234      14.67330593      16.80719541       0.02519064       0.00836791       0.01161316
N       18.72873844      15.13699005      18.72091629       0.00142079      -0.00456371       0.00228880
C       17.58799762      15.72246517      19.14320261      -0.00995531       0.00936550      -0.00053633
H       15.46125956      16.84443590      21.34753921       0.00558289      -0.01335174      -0.00185479
H       18.01326953      15.56578600      15.52305742       0.01672554       0.00528979      -0.00601947
H       20.57388912      14.08700943      17.38079561       0.02260463       0.01037492      -0.01046285
H       20.02751075      14.50392950      15.79696140      -0.00654037      -0.01041811       0.00016506
N       19.77714596      15.09359780      11.86630241      -0.00873250       0.01342527      -0.00028848
C       19.44356615      14.87725649      13.22670775      -0.01416112      -0.01520602      -0.00663036
O       20.23136583      14.21824194      13.93439636      -0.00126910      -0.02151242      -0.00730450
N       18.26243920      15.39107098      13.67402846      -0.01184353      -0.01808257       0.00049622
C       17.42558179      16.04423052      12.83671517      -0.00983036       0.00141873      -0.00083304
N       16.25654390      16.47410769      13.34223031       0.00091068       0.00202500       0.00312955
C       17.75968467      16.25545258      11.44992242      -0.01794733      -0.00598707      -0.00359697
C       18.95361588      15.77663522      11.01071017      -0.00705768       0.00484139      -0.00939635
H       19.30949778      15.90421538       9.99450393      -0.01901794      -0.00003445      -0.01748607
H       17.09433536      16.78854285      10.78267322      -0.00754619       0.00773234      -0.00469638
H       16.06945660      16.42907063      14.36686752      -0.00490515       0.03351587      -0.00183011
H       15.63032682      17.02061367      12.76595627       0.00537258       0.01487486      -0.02318210
N       21.48407136      11.46773764      14.54018280      -0.02150419      -0.01635942      -0.00819616
C       20.48907835      11.51427440      15.54249477       0.00572019      -0.01624989       0.00294031
O       20.80954066      11.91413757      16.67944572       0.02904781      -0.02213874      -0.02745167
N       19.22977727      11.10516473      15.20541543      -0.00920146       0.01839676      -0.01279792
C       18.97286962      10.61432734      13.97289542      -0.00941847       0.00849287      -0.00256750
N       17.72213842      10.17766354      13.73124261       0.00137451       0.00610277       0.00009873
C       19.98476428      10.57384868      12.94885301      -0.02685620       0.01286683      -0.01075750
C       21.22774083      11.02393278      13.27705901      -0.00287706      -0.01198957      -0.00015427
H       22.05778814      11.03720467      12.57857092      -0.01381814      -0.00680725       0.00690136
H       19.77750920      10.17938198      11.96162432      -0.01327615       0.02249510      -0.00616345
H       16.99830837      10.18828879      14.47708796      -0.00785781      -0.01234387      -0.00328844
H       17.48704388       9.78769672      12.82876200      -0.00556850       0.00931768      -0.00153958
C       11.57729547      13.27361229      18.13241207       0.00191547       0.00578961      -0.00028951
C       11.58087843      13.58684167      19.48085984       0.00524865       0.00438065       0.00028179
C       12.78973979      13.83102938      20.16810425      -0.00173498      -0.01379088      -0.00074511
C       13.98812607      13.76407651      19.49159461       0.01413336      -0.00624624       0.00386437
C       14.02899299      13.47269795      18.10244299       0.00395281      -0.01303549       0.00252431
C       15.25725384      13.41446263      17.40278187       0.01076161       0.00237056       0.00099450
C       15.22381622      13.23868208      16.03983687       0.00118065      -0.00041189       0.00155346
N       16.24781482      13.20709404      15.10823073       0.00672395      -0.01771439       0.00989309
C       15.71842518      12.98325970      13.85004611       0.00328227      -0.01506975      -0.00635268
C       16.38193170      12.88480704      12.62350240       0.00886671      -0.00385614       0.00417959
C       15.61005641      12.71377573      11.47882953       0.00360469      -0.00155912       0.00386694
C       14.20100956      12.63195674      11.54526746       0.00623801      -0.00016815       0.00593051
C       13.53987667      12.70168204      12.76489104      -0.00766240       0.00370342       0.00110917
C       14.29418410      12.86814514      13.94851492       0.03009682      -0.01123984       0.03008294
C       13.98959985      13.00290452      15.34915923       0.00302927      -0.01559014      -0.00222709
N       12.82502973      12.90224124      16.05141062       0.01670394      -0.00293054       0.01155660
C       12.79372976      13.21295281      17.41592017       0.00945343      -0.00213350      -0.00060472
C       11.61498693      12.36182263      15.37984514       0.00799716       0.00078367      -0.00202809
H       10.63020312      13.10482114      17.63686184       0.00797402       0.02334305      -0.00896852
H       10.63592390      13.65214515      20.01129438       0.00257419       0.00198952      -0.00123721
H       12.76977213      14.07840172      21.22471961       0.00332958      -0.00302002      -0.00214739
H       14.92689390      13.94703445      20.00214145       0.00218492       0.00866102      -0.00117448
H       16.19095483      13.52232467      17.94029418       0.01194483       0.00212733       0.00305396
H       17.23677801      13.23706852      15.32373056       0.00596033       0.02548272      -0.00392248
H       17.46172883      12.94085603      12.57686359       0.00917781       0.01561431      -0.00468764
H       16.10000164      12.64621477      10.51175383      -0.00023346      -0.00350493       0.00577727
H       13.62878936      12.50939633      10.63154023       0.00090914      -0.00026791       0.00020723
H       12.45915593      12.63759877      12.78800590       0.00879215       0.02685312       0.00118682
H       11.93500703      11.66275033      14.61033405      -0.00239421      -0.00279376      -0.00276445
H       11.02188053      11.80690693      16.10373678       0.01089839      -0.00624881      -0.00853863
H       11.02038234      13.16896464      14.94256795      -0.00258447      -0.00159563      -0.00015427
H       14.57221414      10.55898326      21.21258336      -0.00531241       0.02793247      -0.00855149
H       22.39817103      11.82093585      14.80505560      -0.00469638       0.00633828      -0.01804812
H       17.77811057      15.67904173      21.26655039      -0.00839465       0.00338563       0.00833655
H       20.68567122      14.75313929      11.56786135      -0.01648746      -0.00490772      -0.00792414
89
Lattice="35.19175061832372 0.0 0.0 0.0 24.384438681895567 0.0 0.0 0.0 31.287594328174045" Properties=species:S:1:pos:R:3:forces:R:3 energy=-12383.26424590793 pbc="F F F"
N       13.47125300      10.51806270      20.50377712      -0.00129944       0.01046542      -0.01114882
C       12.30380045      10.40930334      19.74262794       0.00543274       0.01984378      -0.00470872
N       12.54156788      10.41713795      18.44873561      -0.00143622      -0.01558809      -0.00980310
C       13.92957231      10.51746578      18.34373305      -0.00677023      -0.01290848      -0.01658979
C       14.77960263      10.56834071      17.19911754      -0.00480539      -0.01382842      -0.03546374
O       14.45998865      10.56012058      15.98476996      -0.00357949      -0.02327054      -0.03049020
N       16.14420966      10.68301617      17.56275869      -0.00600918       0.00572482      -0.01504044
C       16.61998726      10.82000594      18.85567934      -0.01772262       0.01202659      -0.00275417
N       17.94982154      11.05112959      18.99305352      -0.01447480      -0.02281906      -0.00041652