89
Lattice="40.51885195 0.0 0.0 0.0 24.676206410000002 0.0 0.0 0.0 31.25181255" Properties=species:S:1:pos:R:3:forces:R:3 energy=-12381.852604766735 free_energy=-12381.852604766735 pbc="F F F"
N       22.50881098      10.64428080      20.18725342       0.00365200       0.00276856      -0.00564563
C       21.39029298      10.48315636      19.36514111       0.00507999       0.01674714      -0.00544354
N       21.70489909      10.41375751      18.08952502      -0.03255634       0.02903136      -0.00089217
C       23.08742144      10.54050447      18.05567609       0.00510261      -0.07069454       0.02780854
C       24.00316878      10.54317891      16.95313305       0.01087422       0.01574492       0.01555312
O       23.75467858      10.43424247      15.73337535       0.00892019       0.01767479       0.06354688
N       25.34433761      10.69928443      17.39574749      -0.01176588       0.01516591       0.00292180
C       25.74978635      10.80543141      18.71258394      -0.00281022      -0.02350606      -0.02231666
N       27.08587722      10.87608178      18.94372421      -0.00809538      -0.00474986      -0.00008947
N       24.89685507      10.81262929      19.74407415      -0.00814731       0.01090971      -0.03943661
C       23.61252315      10.67986377      19.35651471      -0.00883071      -0.00617219      -0.01630337
H       20.39008603      10.42969860      19.77471030       0.01959129      -0.00109426      -0.00182548
H       26.06719549      10.74001705      16.64354511      -0.00626115      -0.00461307       0.01039703
H       27.35020576      11.14160269      19.88385954       0.02116069       0.00008999      -0.01788614
H       27.74756028      11.06770203      18.17924149       0.00310178      -0.00107986       0.02331425
N       24.05867523      14.03178041      20.40392281       0.00825787       0.00684788      -0.01801624
C       22.66721191      14.06479204      20.28791415       0.01384436       0.01765988       0.00145267
N       22.26139346      14.08657956      19.03578983       0.00303287      -0.01983966       0.00876078
C       23.43167372      14.06232351      18.28297380      -0.00385203      -0.02446353       0.01271822
C       23.63506606      14.04963112      16.86464799      -0.00070757       0.00340568       0.01013478
O       22.77475463      14.06506594      15.95832133       0.03043569       0.02027315       0.01904313
N       25.01726543      14.00795469      16.53997492      -0.02838138      -0.00608169       0.00080835
C       26.05853090      13.98283617      17.45137278      -0.02966231      -0.00280507      -0.02087685
N       27.31905024      13.96882012      16.94948141      -0.02342584      -0.00511598       0.00201317
N       25.86990040      13.98674370      18.77575779      -0.03531616       0.00766652      -0.02567967
C       24.56606471      14.02674515      19.11837934      -0.01393641       0.00845636      -0.01032966
H       22.02634281      14.08370432      21.15943193       0.00411068      -0.00529390       0.00386591
H       25.24503386      13.94272670      15.52689309      -0.02198139      -0.00267652       0.01040988
H       28.05698752      13.69642343      17.58694836      -0.00782747      -0.00043503      -0.02856804
H       27.49022040      13.82504878      15.94816969       0.00256545      -0.00892379       0.01494222
N       27.17102019      14.19978879      11.91331171      -0.02227193       0.01552432       0.00907497
C       26.90735639      13.94066971      13.29022166       0.00475500       0.01400120      -0.00023243
O       27.87389429      13.76860981      14.05496088       0.04312820       0.01301595      -0.03992358
N       25.60102559      13.90225630      13.68046017       0.01489954       0.03656726       0.01456016
C       24.60693595      14.13923038      12.80208874       0.01043919      -0.08839762       0.01900765
N       23.34197722      14.10190546      13.25932182       0.04637036      -0.00584360      -0.02853462
C       24.87232480      14.41540205      11.40804667       0.00903640       0.01768199      -0.00757498
C       26.17200013      14.44851264      11.00901393      -0.00101816       0.00368748       0.02331631
H       26.47587904      14.67377229       9.99078747      -0.00524094      -0.03825288       0.04270140
H       24.06737180      14.60684795      10.70818469       0.02270336       0.00451794      -0.00069934
H       23.14071532      14.00710754      14.28037121      -0.00896081       0.03712570       0.00626578
H       22.59083885      14.37240154      12.63978779      -0.04724454      -0.01862610      -0.00170258
N       29.57350758      11.08557228      14.59259841      -0.02071178      -0.00399807      -0.00526099
C       28.59931303      11.11350945      15.62303202       0.00501931       0.02110310      -0.01616196
O       28.96838705      11.40582185      16.77830667      -0.00556901       0.02966333       0.00543377
N       27.31379056      10.81478001      15.28095341       0.02782911      -0.01077447       0.00492881
C       26.98831859      10.51313105      14.00808995       0.01497462      -0.01268428       0.00534327
N       25.69550751      10.25029530      13.73870265       0.02124863       0.03128261       0.00138942
C       27.97997420      10.46582374      12.96252728       0.00410914       0.01288946      -0.00425620
C       29.26188155      10.76910729      13.30155221      -0.01097707      -0.00412302      -0.00121613
H       30.07922223      10.76703707      12.58815036      -0.00159820       0.01232947       0.01010855
H       27.71846963      10.19525755      11.94655481       0.00517409       0.01922054       0.00117088
H       24.97085769      10.32225137      14.48282136      -0.02373180      -0.00619430      -0.01444394
H       25.41868083      10.00755825      12.79757596      -0.01710709       0.01174840       0.00624058
C       10.96995144      12.37673728      17.93272367      -0.03832795      -0.02541536      -0.00772668
C       11.02291566      12.56987285      19.30655377      -0.00621333      -0.02053643      -0.00787632
C       12.25529602      12.57276038      19.99155817       0.03038273       0.01993685      -0.02641192
C       13.42944372      12.42002226      19.28180502       0.02682946      -0.00784649       0.00009822
C       13.42337978      12.25182005      17.86962537      -0.00238701      -0.00411479      -0.00220652
C       14.62993700      12.17917481      17.12762741      -0.00093742      -0.00078676       0.00006788
C       14.54552902      12.10019484      15.75519387      -0.02644071       0.00117397       0.00065100
N       15.55261535      12.08645946      14.80232819      -0.02112059       0.02090718      -0.00605135
C       14.98249565      12.01510112      13.53447970       0.02551357      -0.03182049      -0.03621965
C       15.62471828      12.02091773      12.29416305      -0.02163018       0.01307817       0.00518334
C       14.82890768      11.94726151      11.15225102       0.00250374      -0.02378425       0.00409371
C       13.42176316      11.86950633      11.24184434       0.00713173      -0.04826989      -0.01488772
C       12.78076353      11.86386692      12.47399803       0.00354812       0.03054368      -0.01418735
C       13.55450465      11.93138249      13.65956101       0.02480549       0.01367518      -0.02021864
C       13.28535883      11.99087515      15.07215428       0.02020784       0.00970746      -0.01329055
N       12.12416465      11.96888923      15.80052118      -0.00319588       0.01833968       0.03478909
C       12.15513684      12.18867321      17.18997992       0.01167178       0.05339359      -0.00555101
C       10.82406197      11.72122721      15.12077360       0.02384030       0.01860193       0.01511860
H       10.00586169      12.40036409      17.44244306      -0.00928683      -0.00659899      -0.00359132
H       10.10075669      12.72690078      19.85671669      -0.01076418      -0.00512112      -0.01368907
H       12.28073844      12.71807986      21.06718568      -0.00686227      -0.02096683      -0.02200247
H       14.38762083      12.44105019      19.79298689       0.00170876       0.01816485      -0.00767989
H       15.58972236      12.20756777      17.63631667      -0.02204875       0.03382235      -0.00660414
H       16.51990528      12.32659780      14.98938824      -0.01801006      -0.08788700      -0.00170721
H       16.70663151      12.08317585      12.22388867      -0.01645300      -0.00252997       0.01468769
H       15.30103435      11.95245581      10.17455869      -0.00698157      -0.00336712       0.00884768
H       12.83228204      11.82326767      10.33045876       0.01864873      -0.00253871       0.04751296
H       11.69948664      11.82982712      12.50019761      -0.00414925       0.00497611       0.02453193
H       10.99583492      11.10890092      14.23723744       0.00721194       0.01185947       0.08020557
H       10.16493762      11.17043118      15.79299517       0.03807444       0.00983036      -0.05652879
H       10.35326934      12.66849035      14.83379838       0.02620417      -0.04836348       0.00407828
H       22.53030947      10.71836285      21.19734635       0.00903794      -0.00985864      -0.01288123
H       30.51701299      11.34838456      14.85945239      -0.02780031      -0.01255881       0.01667258
H       24.61209009      13.96850693      21.25075658      -0.00460742      -0.00735130      -0.02162761
H       28.14962575      14.26033026      11.65068494      -0.02055186      -0.00791540       0.01000982
89
Lattice="40.51885195 0.0 0.0 0.0 24.676206410000002 0.0 0.0 0.0 31.25181255" Properties=species:S:1:pos:R:3:forces:R:3 energy=-12381.939961317312 pbc="F F F"
N       21.89186264      10.40742103      20.20519682       0.02282163       0.01641392       0.01501833
C       20.75755257      10.38651428      19.39079249      -0.00727777      -0.00222915      -0.00519723
N       21.04984035      10.47080567      18.11187822      -0.00949406       0.01709372      -0.02370403
C       22.43796538      10.55584436      18.06858393      -0.00145576       0.00843065      -0.00056667
C       23.33948271      10.67613317      16.96179856       0.00150924      -0.00605392      -0.01158076
O       23.07428558      10.73644404      15.74091885      -0.00103101      -0.00739552      -0.00703402
N       24.68907377      10.73174710      17.39677145      -0.01503633       0.01479619      -0.01934035
C       25.11720429      10.67127784      18.70868835       0.02343972      -0.02232078      -0.00115443
N       26.46124468      10.69117112      18.91742525      -0.04738595      -0.00973265      -0.00812520
N       24.28079024      10.56748195      19.74544658      -0.05340850      -0.00691781       0.01072767
C       22.98637180      10.51463698      19.36606302      -0.01491034      -0.01310491      -0.00244049
H       19.76303641      10.31316140      19.80951810       0.00088395      -0.00238701       0.00597062
H       25.40231915      10.83715825      16.64333400      -0.00835300       0.01082332      -0.01511140
H       26.76145626      10.81662857      19.87611411      -0.04763432      -0.01009158      -0.01177822
H       27.10937493      10.97896351      18.17283563      -0.01132057       0.00831958      -0.00510055
N       23.24530863      13.80767885      20.56528017       0.04427183      -0.01553718       0.01256755
C       21.85324398      13.86592220      20.52049126      -0.02184204      -0.00975374      -0.02146614
N       21.38881057      13.98695168      19.29392073      -0.00858749       0.00968637       0.00122025
C       22.52156736      14.00711711      18.48719576       0.02490422       0.01555569       0.01396212
C       22.66504047      14.12072126      17.06751268      -0.02151499       0.01682479      -0.02786562
O       21.76455703      14.23929191      16.20895586       0.02028601      -0.00747728      -0.00418678
N       24.03041002      14.08563174      16.67805974      -0.01212070       0.00468198       0.01484555
C       25.11136432      13.96461749      17.53377634       0.04140865       0.00689673      -0.00693735
N       26.34813828      13.96435685      16.97564368      -0.06541093       0.00656248      -0.00660362
N       24.97861101      13.86197496      18.85989930      -0.00786963      -0.00104747       0.02992816
C       23.69257046      13.89357472      19.26093021       0.01069682      -0.01629668       0.03678683
H       21.25501516      13.82254537      21.41939128      -0.02088404      -0.00447475       0.03914865
H       24.20466559      14.09047509      15.65306827      -0.01281849      -0.01637124      -0.01650443
H       27.11378629      13.63581252      17.55107163      -0.00267498      -0.01037286      -0.00481208
H       26.47109571      13.92813719      15.95729843       0.00199261      -0.03758387       0.01104855
N       25.91521226      14.18002919      11.93612746       0.07277611      -0.02706601      -0.01164350
C       25.72899344      14.04647898      13.34005631       0.00856743       0.01733489      -0.00067414
O       26.73909855      13.95114963      14.06067980      -0.00789637      -0.01841219       0.01573310
N       24.44581552      14.03437048      13.79695775       0.01129691      -0.00657174      -0.00225486
C       23.40390036      14.08408515      12.94372952      -0.00158688      -0.02085062       0.01951416
N       22.16602225      14.07074726      13.47023305      -0.00089269       0.01697545       0.01547958
C       23.59200330      14.14053483      11.51089700      -0.01980110       0.02151551       0.02113550
C       24.87000879      14.20425872      11.05304537      -0.00272383      -0.02738791       0.00494835
H       25.11994773      14.27282823      10.00042790       0.01593313       0.01418015      -0.02290596
H       22.74884495      14.16045096      10.82989773       0.03404912       0.00437139       0.00484344
H       22.02040475      14.10132950      14.50499187       0.01629103      -0.00756624      -0.01488309
H       21.36789985      14.17761720      12.85945827      -0.01310491      -0.01288791       0.00385151
N       28.89590796      11.27830956      14.60924120       0.00249191      -0.01099301       0.01369524
C       27.91803760      11.27101456      15.63858598       0.01597221       0.00342574       0.00704225
O       28.27904183      11.51179692      16.80951509       0.04217535      -0.08063083       0.02019859
N       26.63452171      10.99603327      15.27828566      -0.02651527      -0.02001038       0.01505432
C       26.30544138      10.77376920      13.99197831       0.01742591       0.02040582       0.00985093
N       25.00135945      10.60015343      13.70534470      -0.00690187      -0.01583748      -0.00294906
C       27.30191112      10.73186532      12.95149616       0.00364942      -0.01504558       0.00910325
C       28.58807518      10.99342866      13.30832920       0.00217978       0.02729638      -0.00227851
H       29.41129640      10.99268650      12.60160845      -0.00462747       0.00631669       0.01112105
H       27.04090422      10.49674475      11.92716686       0.00665864       0.01880299      -0.01839419
H       24.27872895      10.65901869      14.45366016       0.01271976      -0.00073431      -0.01523482
H       24.72002457      10.38411229      12.75928773      -0.01971214       0.00996971      -0.00439607
C       10.99672840      12.36355724      17.99785152       0.01063254      -0.02767124      -0.00390345
C       11.04487797      12.55247631      19.37112060       0.00222040       0.02507854      -0.01298716
C       12.27859869      12.61228603      20.05390320      -0.00548262      -0.00052913      -0.01213561
C       13.45851945      12.49977953      19.34802419       0.00075025       0.00239010      -0.00146707
C       13.45655088      12.31540882      17.93770121       0.00720063      -0.00861474      -0.00805167
C       14.66765010      12.22607047      17.20657460       0.00171030      -0.00196998       0.00137811
C       14.59364457      12.09805646      15.83808619      -0.00173755      -0.00845790      -0.00434722
N       15.60339456      12.02383801      14.89415433       0.01123007       0.01390864       0.01801469
C       15.04485406      11.94317114      13.62415346       0.00569602      -0.01040063       0.00759298
C       15.69658071      11.88076746      12.39168804       0.00495400      -0.00207694      -0.00571968
C       14.90604494      11.84224875      11.24515320      -0.01800132      -0.00832832      -0.01301338
C       13.49638974      11.88273420      11.32305705       0.00621179       0.01115190       0.01019597
C       12.84410576      11.93619330      12.54784325       0.00719549      -0.00762846       0.00833912
C       13.61342086      11.94641760      13.73768919       0.00627298      -0.01105369      -0.00599890
C       13.33798412      12.01844967      15.14715760      -0.00404486       0.01942931       0.00895670
N       12.17109866      12.00712273      15.86614860       0.01032195       0.00654757      -0.00381912
C       12.19019841      12.22342394      17.25516618       0.00586263       0.00693684      -0.00054610
C       10.89436348      11.72018384      15.16261576      -0.00284313       0.00380832       0.00516175
H       10.03318246      12.34880380      17.50559162      -0.00359235       0.00772977       0.01397395
H       10.11628666      12.67041431      19.92081833       0.00952388      -0.01058780       0.00282307
H       12.29631254      12.75999882      21.12834911      -0.00250066      -0.00453697       0.01179057
H       14.41523176      12.56040424      19.85922229      -0.00912999       0.00046228      -0.01184764
H       15.62400401      12.27763594      17.71833590      -0.00315012      -0.00059804       0.01815816
H       16.59333697      12.09986090      15.09690725      -0.00403252      -0.01382122       0.00474523
H       16.78084510      11.86465328      12.33392789      -0.01615270       0.00151438      -0.00251351
H       15.38276424      11.78611964      10.27174823       0.00186971       0.01712818      -0.00357692
H       12.91308432      11.88144197      10.40862548      -0.00260350      -0.01418323      -0.01145015
H       11.76264941      11.99119623      12.56877571       0.01957535      -0.00800436       0.02042947
H       11.09575349      11.03557521      14.34098637       0.01963809       0.00412405      -0.00462593
H       10.20269197      11.22632353      15.84165378       0.00503576      -0.00017843       0.01340110
H       10.44480090      12.64171286      14.78135527       0.00238136       0.00889653       0.00659488
H       21.93023769      10.33390792      21.21494907       0.01057752       0.00291049      -0.00957530
H       29.84801564      11.48868835      14.89387420      -0.04310301      -0.00475088       0.00453748
H       23.83855263      13.67193734      21.37593377      -0.00818382      -0.00273565      -0.01265394
H       26.87809300      14.21242718      11.61832270       0.00302773       0.00223275      -0.00675326
89
Lattice="40.51885195 0.0 0.0 0.0 24.676206410000002 0.0 0.0 0.0 31.25181255" Properties=species:S:1:pos:R:3:forces:R:3 energy=-12382.149479691001 pbc="F F F"
N       20.88444046      10.43164689      19.49640981      -0.03167188       0.02262674       0.01968848
C       19.83180665      10.51478807      18.58734073      -0.02537268       0.01017848      -0.02331836
N       20.24183374      10.65251815      17.34392729      -0.00941435       0.00326273      -0.01844767
C       21.63812741      10.66596712      17.42876090      -0.00790871      -0.00760789      -0.01084749
C       22.65618236      10.77953987      16.42415795      -0.01965711      -0.00612900       0.00607860
O       22.53176875      10.90491250      15.18510415       0.01288380      -0.03179941       0.00222143
N       23.95597985      10.73840390      17.00008055      -0.00987561       0.01885339       0.01176640
C       24.24549523      10.59704766      18.34434394      -0.02051843       0.02351737       0.01414467
N       25.55708670      10.52150994      18.69489980      -0.01092256       0.00833500      -0.01978824
N       23.29901869      10.50362762      19.28180157       0.02893263       0.02734934      -0.01004119
C       22.05287253      10.53192264      18.76698511      -0.03407843      -0.00821210      -0.00592177
H       18.80180578      10.45917353      18.91490720       0.00538698      -0.00312029      -0.01179057
H       24.75480282      10.83124046      16.33842300       0.00081195       0.01387882      -0.00940098
H       25.74401071      10.59548988      19.68651383      -0.01234798       0.00151489       0.01565905
H       26.29923665      10.83509823      18.05588700      -0.00710447      -0.00747265      -0.01433801
N       22.96414592      13.77288515      20.35047676       0.00270480      -0.01047673       0.01566933
C       21.57653012      13.81742666      20.22946349      -0.01942726      -0.00491184       0.01111334
N       21.17801624      13.94441508      18.98099965      -0.00840494      -0.02954661      -0.01783832
C       22.35446941      13.97966813      18.23720925       0.00882351      -0.00052399      -0.01863176
C       22.57608586      14.06542867      16.82555925      -0.04101733       0.02630650      -0.02848114
O       21.72655036      14.12131354      15.91089965      -0.02649059      -0.00122693      -0.03793869
N       23.96037490      14.05998157      16.51376047      -0.00639485      -0.00096056       0.03189299
C       24.99226856      13.95720431      17.42938288      -0.01398217      -0.01188673      -0.00924055
N       26.25951452      13.98582732      16.94671806       0.00066077       0.01893875       0.00701757
N       24.78697871      13.85134353      18.74559953       0.01161779      -0.02134530       0.00206408
C       23.48050483      13.86889439      19.07416558       0.02606739       0.00718778       0.02205338
H       20.93095804      13.76050251      21.09425047      -0.02069378       0.00599993       0.04149092
H       24.19844750      14.05313217      15.50190986      -0.01749276       0.00238856      -0.01963243
H       26.97605509      13.60605679      17.55370534      -0.00321594       0.02156847       0.00966632
H       26.44064451      13.93971333      15.93799406      -0.00659539      -0.01850577      -0.01806611
N       26.18507059      14.13948083      11.91155838       0.01063665      -0.00186919       0.00929248
C       25.90465853      14.03507538      13.30277370      -0.01611362      -0.02482452       0.00060061
O       26.86559694      13.95458273      14.08951978      -0.01716983       0.02289876      -0.00196792
N       24.59292627      14.01149878      13.67568970       0.05009332       0.00184708      -0.00998719
C       23.60802116      14.04205906      12.75731780      -0.00577316      -0.02311576      -0.00482236
N       22.33999807      13.97190386      13.19840914       0.01401303       0.00474831      -0.00131538
C       23.89175195      14.13265508      11.34264135       0.00137863       0.00182908      -0.00536024
C       25.19734284      14.19120268      10.96637032      -0.00083612       0.00155243      -0.00357949
H       25.51595709      14.27857300       9.93277171      -0.01392458      -0.00119145       0.00463519
H       23.09796651      14.17548400      10.60711061      -0.00528362      -0.00653163      -0.00756727
H       22.12122147      13.96400117      14.22005321       0.00814063       0.01009878      -0.01343813
H       21.57873373      14.04890346      12.53720194       0.00859777      -0.01100329       0.01759149
N       28.54292492      11.13216950      14.78116242      -0.01714926      -0.00523271      -0.04804004
C       27.45796095      11.14495545      15.69482958      -0.02493096       0.01633165      -0.01310697
O       27.70377906      11.31145359      16.90613439       0.01851863      -0.01272902      -0.01967820
N       26.20466646      10.97572128      15.18280701      -0.00869239      -0.01136839      -0.00387260
C       26.01265516      10.81705633      13.86022176      -0.00297785      -0.02044233       0.01360679
N       24.74229856      10.68538672      13.42771152      -0.02174793       0.01410353       0.00289301
C       27.11469121      10.78395304      12.93060800      -0.01179622      -0.02371791       0.02105631
C       28.36613935      10.94857100      13.43906289      -0.01777969       0.01349726       0.00742432
H       29.26117306      10.94005639      12.82606888      -0.00618453       0.01226622       0.00748757
H       26.95709134      10.62651414      11.87057301       0.00571865       0.00862605       0.00104541
H       23.93434096      10.77299430      14.07884602       0.04130220       0.02211612      -0.01357697
H       24.55854496      10.61296701      12.43714794      -0.00755339      -0.02110773      -0.02538193
C       11.64498769      12.41915151      18.12661597       0.01093079       0.01335842       0.01049113
C       11.59775489      12.60556870      19.49842815       0.02344949       0.01335740       0.00862811
C       12.78069008      12.63517177      20.27051656      -0.00198849      -0.00066386      -0.00373273
C       14.00420274      12.48898009      19.65350558       0.00125007      -0.00803573       0.01631828
C       14.09892403      12.28838960      18.24848887       0.05207050       0.01625503       0.01892641
C       15.35772046      12.13478364      17.61713904       0.02549558      -0.01228370       0.01091125
C       15.38928227      11.97126236      16.25199531      -0.00530367      -0.01011215       0.01166304
N       16.46285673      11.80295650      15.39646642       0.02621343       0.01314297       0.01675845
C       15.99458014      11.70552736      14.09248993       0.04417361      -0.00037230       0.00425055
C       16.72867025      11.53373468      12.91647258      -0.01303601      -0.01560403      -0.01901074
C       16.02129752      11.48976309      11.71737106       0.01294551       0.03530228       0.00265389
C       14.61689666      11.64322742      11.68216187       0.00515352       0.00673218       0.01691786
C       13.88523290      11.81827985      12.84756618      -0.00256956       0.02899330      -0.03496289
C       14.56272224      11.82090634      14.08936402       0.02721359      -0.00537103       0.03661508
C       14.18211209      11.95568616      15.46694947       0.01437710       0.00541834      -0.00093588
N       12.96487056      12.03115884      16.08842930       0.04899597      -0.05411093      -0.01092822
C       12.88595939      12.24202495      17.47379799       0.00491441       0.00998154      -0.00700420
C       11.72468855      11.83590144      15.29108184       0.01098015       0.01387110      -0.01496074
H       10.72013322      12.43845362      17.56702762      -0.02049632      -0.00476785      -0.00033836
H       10.63405143      12.74027363      19.98023246       0.02080845       0.00613568      -0.00079293
H       12.72027587      12.78100184      21.34350438       0.01072973       0.01202711       0.01469026
H       14.92288074      12.52912636      20.23179570      -0.00800333      -0.01253156      -0.00546514
H       16.27152297      12.15887810      18.20273965       0.01463883      -0.00405463       0.01268377
H       17.43727852      11.74464826      15.68564488      -0.01816793       0.00008382      -0.02079663
H       17.80901498      11.43618268      12.94282726       0.00773028      -0.00280919       0.01273365
H       16.56102620      11.35126853      10.78577424       0.00912073      -0.00375021       0.00612745
H       14.10285580      11.63156514      10.72841537      -0.00710447       0.00676766      -0.05011183
H       12.81454698      11.96567505      12.78475232       0.01227342      -0.00930071      -0.00147581
H       11.93991236      11.16811850      14.45946193       0.02478646       0.01648591       0.02774066
H       10.96222294      11.36229188      15.90576696       0.01498542      -0.00282307       0.00809075
H       11.35856645      12.79693520      14.91995707      -0.02027521       0.00118836      -0.02405319
H       20.83598354      10.32434863      20.50264563      -0.02232746       0.00427780      -0.01562871
H       29.46461913      11.27931549      15.17956284      -0.00071888      -0.00560089       0.00348025
H       23.51007347      13.63671160      21.19229860       0.01511603      -0.00582046       0.02228427
H       27.16661686      14.18680037      11.65996302       0.00223326      -0.00457502      -0.01342322
89
Lattice="40.51885195 0.0 0.0 0.0 24.676206410000002 0.0 0.0 0.0 31.25181255" Properties=species:S:1:pos:R:3:forces:R:3 energy=-12383.07883124607 pbc="F F F"
N       19.72362220      10.17710036      19.50658253      -0.01422437      -0.00454211       0.01585548
C       18.67142339      10.21349940      18.58891778       0.00238290      -0.01854125      -0.01680010
N       19.08789882      10.37435378      17.35115953       0.02201893       0.01416781      -0.00840288
C       20.47917164      10.43966733      17.44452878       0.01322833      -0.05841084       0.01367930
C       21.49080256      10.59927779      16.44493073       0.02617435       0.00492572       0.00489075
O       21.36785339      10.73007255      15.20519224       0.00163522      -0.01427425      -0.01292134
N       22.78636266      10.62828007      17.02233099       0.02548786      -0.01552124       0.00122385
C       23.07760015      10.53463934      18.37013807      -0.00127784      -0.00358360       0.01158025
N       24.38346108      10.61098145      18.72385918      -0.02444605      -0.02505694       0.05021313