89
Lattice="33.09589358715483 0.0 0.0 0.0 27.524783101306795 0.0 0.0 0.0 31.504101822081175" Properties=species:S:1:pos:R:3:forces:R:3 energy=-12383.163729140073 free_energy=-12383.163729140073 pbc="F F F"
N       15.65267697      11.30243805      19.70289638       0.04009584       0.03776179       0.00994297
C       16.70016082      11.89768902      18.94628973       0.03320066       0.02375494       0.00106649
O       17.61636448      12.49080599      19.54135905      -0.01126143       0.03369020      -0.02613938
N       16.62396164      11.78088565      17.58608471      -0.00751842       0.01763468      -0.00506250
C       15.60994998      11.12039535      16.99831189      -0.01640621      -0.01257681      -0.03246738
N       15.61670579      11.05463010      15.64949656       0.01911461       0.00023551      -0.00408600
C       14.54547918      10.52296229      17.76271754       0.02024075       0.00226771       0.01706596
C       14.61175271      10.63621031      19.11754838       0.02466562       0.01290077       0.02845543
H       13.86411556      10.21932716      19.78356591       0.00331775       0.00537978      -0.00688541
H       13.72544940       9.99981764      17.28717127      -0.00250117      -0.00241067      -0.00786398
H       16.35938943      11.53208374      15.11504849      -0.00329050       0.00481516       0.00490721
H       14.90184473      10.53820543      15.15689409      -0.01569813      -0.00498845      -0.01824763
N       18.30490166      15.53232319      20.49786079       0.01739197      -0.01301493      -0.00278913
C       16.91582291      15.61215266      20.57279341       0.02095758      -0.02770621      -0.00163162
N       16.36101610      15.89784138      19.41397514       0.00720269      -0.01999701       0.00506816
C       17.43185389      16.00970392      18.52629218       0.00944572      -0.01588582      -0.00479922
C       17.46365859      16.31528537      17.13291351      -0.00990338      -0.02409844      -0.00326839
O       16.49259495      16.54135595      16.36875309      -0.03802970      -0.06491985       0.02721461
N       18.78041635      16.31268866      16.62299712       0.00006788       0.01285140      -0.00365714
C       19.92556983      16.07302817      17.36542180       0.04285001       0.02349423      -0.01092102
N       21.11014367      16.15879684      16.71151898       0.00111946       0.04031541       0.01664275
N       19.89989629      15.78504938      18.67021348       0.00795242       0.00500748      -0.00921535
C       18.65287426      15.77495666      19.18306152       0.01389476       0.00169950      -0.00420015
H       16.38758898      15.45895023      21.50415989       0.00884151      -0.00903023       0.00891402
H       18.86926408      16.49449475      15.59816189       0.00545691       0.00732045       0.00549085
H       21.90498551      15.75189843      17.18566294       0.03276923       0.01863124       0.02981760
H       21.14678336      16.22595907      15.68474262       0.01334711       0.02393234      -0.00962827
N       20.33206271      16.92871345      11.83718725      -0.02356468       0.02170063      -0.00115648
C       20.21344192      16.68942961      13.22875164       0.06902693       0.01896806       0.04083683
O       21.25011965      16.44661428      13.87815692      -0.00088189      -0.03308701      -0.03431086
N       18.96497322      16.75199825      13.77340540      -0.00385254       0.00267240       0.00324473
C       17.89184851      17.04712852      13.01324218       0.00939790      -0.01207236      -0.01029110
N       16.69633522      17.11866854      13.62955067      -0.00064226       0.00493755      -0.00360366
C       18.00807275      17.28622624      11.59663874      -0.00802956      -0.00634034      -0.00497457
C       19.25231669      17.22121043      11.05107915       0.00703402      -0.00242815      -0.00019797
H       19.44897996      17.39880979       9.99991795      -0.00151849      -0.01020677      -0.01776735
H       17.14357709      17.52462541      10.98920090       0.00383763      -0.01010958       0.00180491
H       16.61357644      16.93715031      14.64871013       0.00968483      -0.02381407      -0.01383408
H       15.86228282      17.31599333      13.09410242       0.01349418      -0.00628481      -0.01654814
N       22.12345610      13.48091723      13.86106119      -0.01575624      -0.00273565      -0.01422180
C       21.47133715      13.58950794      12.63181653       0.01070813      -0.00477814       0.00090709
N       20.17555397      13.38722491      12.71874038       0.00213710      -0.02179936      -0.01017334
C       19.95032610      13.14837102      14.07499298      -0.00926420       0.00138942      -0.00583795
C       18.76250889      12.85316131      14.78901747       0.02819575       0.01859936       0.00012907
O       17.58325425      12.72221811      14.33942013      -0.01649157       0.04799633      -0.02015077
N       18.98364839      12.70367740      16.16892990      -0.00331775      -0.01485378       0.00800282
C       20.21528308      12.80397354      16.79657431       0.02439823      -0.01054872      -0.02905193
N       20.23429061      12.59456424      18.14066844       0.01418941      -0.02635484      -0.00370496
N       21.34245153      13.06502295      16.13326342      -0.00514992      -0.03992718      -0.00745517
C       21.15479060      13.21641623      14.80601773       0.00671367       0.01018620      -0.01651985
H       22.01428879      13.81628360      11.72414286       0.00478791      -0.01218600       0.00491184
H       18.14491401      12.43135984      16.72280897       0.01274290       0.00618607       0.00188308
H       21.07284251      12.90575485      18.61489371       0.00957890      -0.00671881       0.00506610
H       19.35861759      12.63984303      18.67157597       0.00337843       0.00324885      -0.01074310
C       10.99449108      14.18552127      18.00440620       0.00007405       0.00044532       0.00398778
C       11.13639681      14.01524237      19.37192329      -0.00901532       0.00415542      -0.01559220
C       12.41384083      13.98927122      19.97634904       0.00446446       0.00442950      -0.00641593
C       13.54244626      14.11104028      19.19623506      -0.00718675      -0.00988178      -0.01602929
C       13.44334619      14.24731018      17.78293681      -0.00630743      -0.00511135      -0.00145062
C       14.60225224      14.29244428      16.97634695      -0.00304984       0.00052193       0.00671058
C       14.44345463      14.32090527      15.61089073      -0.01895109      -0.00242198       0.00570168
N       15.39250460      14.28255897      14.61483093      -0.02160704      -0.00761818       0.01330957
C       14.75895708      14.28383198      13.39082849      -0.01910176      -0.00687667       0.00059752
C       15.34886521      14.15527262      12.12628906      -0.00485527       0.00981750       0.00706025
C       14.50406892      14.17556830      11.02296596      -0.01111745       0.01000519      -0.00166607
C       13.10178281      14.31762331      11.16768110      -0.00834323      -0.00241015      -0.01136479
C       12.51351638      14.42771633      12.42039232      -0.01519522       0.00024271      -0.01190472
C       13.33813411      14.41107052      13.57246048      -0.01170623      -0.00042372       0.00548931
C       13.14450308      14.41880345      15.00062664      -0.02272753       0.00639176       0.00296397
N       12.02961027      14.48233016      15.79293549      -0.01182450      -0.01970545      -0.00135189
C       12.13811174      14.31320269      17.18138503      -0.01527390      -0.00651209      -0.00678823
C       10.70471916      14.72779559      15.17101432      -0.01089171       0.00351933       0.00057284
H        9.99989487      14.18922855      17.57902893      -0.01772621      -0.00484756      -0.00218030
H       10.24740987      13.89920522      19.98384787      -0.00592434       0.01338825       0.00445829
H       12.49883085      13.87806960      21.05296116      -0.00248883       0.01122647      -0.00232685
H       14.53430989      14.12480587      19.63172258      -0.00116008      -0.00327661      -0.00633880
H       15.58200458      14.27465153      17.43045725      -0.00447629      -0.00718366       0.00473649
H       16.35185501      13.91241452      14.71949061      -0.01509546       0.02801320       0.00006376
H       16.42235762      14.02105308      12.03802469      -0.00559575       0.01113133       0.00109786
H       14.92487011      14.06852601      10.02737323      -0.00308224       0.00787735       0.00774159
H       12.47455751      14.32468496      10.28256099      -0.00494217       0.00188153      -0.00944829
H       11.43626716      14.50972932      12.49208783      -0.00841162      -0.02055237       0.00144907
H       10.84781175      15.32155079      14.27164617      -0.00265852       0.00833089       0.00579321
H       10.21461786      13.78202252      14.92057331      -0.00661442       0.00839928      -0.00494217
H       10.08004396      15.30081514      15.85341593      -0.00725668       0.00674915       0.00604929
H       18.94726262      15.29178415      21.24376733       0.01005918       0.00904823      -0.00597370
H       21.27200911      16.89815048      11.45711578      -0.00044634      -0.00797505      -0.00898806
H       15.74075497      11.36431770      20.71242622      -0.01640055       0.00861320      -0.00446755
H       23.09578479      13.68576867      14.05766073       0.02384544      -0.00697797       0.00329461
89
Lattice="33.09589358715483 0.0 0.0 0.0 27.524783101306795 0.0 0.0 0.0 31.504101822081175" Properties=species:S:1:pos:R:3:forces:R:3 energy=-12383.02429880063 pbc="F F F"
N       14.85336643      10.67382840      20.02490380       0.00649821      -0.00151592       0.00773388
C       15.88426848      11.22828982      19.22568665       0.00084589      -0.00271509       0.00221835
O       16.84123685      11.79803809      19.78844279       0.01152111      -0.00444801       0.01539320
N       15.74662646      11.12591784      17.87343283       0.00786089       0.00362937       0.00754053
C       14.62779160      10.61042005      17.32514154       0.00794831       0.00307504      -0.00340157
N       14.54389509      10.61669881      15.97948338       0.00074356       0.02063053      -0.01131645
C       13.54931390      10.10497181      18.13613998       0.01517619      -0.00298814      -0.00963135
C       13.71152856      10.14785414      19.48593875       0.00100684      -0.00320051       0.00101353
H       12.96614665       9.78402684      20.18476462       0.00712556      -0.00391476      -0.00633726
H       12.64900580       9.69245511      17.69690894       0.01501473       0.01250585      -0.00642982
H       15.35719936      10.92267327      15.40760952       0.01430973      -0.00843733       0.00710859
H       13.77383719      10.14640956      15.52215237       0.00857360      -0.00615471       0.00120533
N       17.50120910      15.85893456      20.58338964       0.01287249       0.01133291      -0.00522500
C       16.17528974      16.28371493      20.69946032       0.01465837      -0.00051165       0.00283490
N       15.67368735      16.69912642      19.55831871       0.00853915       0.02224724      -0.02398479
C       16.71451153      16.56649150      18.64190630       0.00158277      -0.00810772       0.00246774
C       16.76826690      16.83675827      17.23908818      -0.01088862       0.00704225      -0.02040890
O       15.85125751      17.22970661      16.48180883       0.01020471       0.00082224       0.00548931
N       18.04732469      16.53539614      16.70169003      -0.00206922       0.00806658       0.00407314
C       19.13869406      16.07058100      17.42366173      -0.00358309      -0.00190519      -0.00641490
N       20.30313390      15.92993184      16.74628051      -0.00430094       0.00388545       0.00029156
N       19.07682851      15.78074257      18.72768756      -0.01291671      -0.05471051      -0.07349088
C       17.86728481      16.04558117      19.26463458       0.00438579      -0.00662625      -0.00217567
H       15.65126710      16.25020401      21.64574429       0.00315937       0.00205534      -0.00878340
H       18.15345362      16.69806068      15.67868762      -0.00530264       0.00756779      -0.00113283
H       21.01558470      15.36573428      17.19200768      -0.01058420       0.00079344       0.01443726
H       20.34011071      16.02498727      15.72324054       0.00407571       0.00623030       0.00301230
N       19.60692518      16.92027111      11.86906243       0.00426392      -0.00532835      -0.00380420
C       19.46925342      16.65930317      13.25509317       0.00042886       0.01377803      -0.00080013
O       20.46663989      16.25818914      13.88621061       0.00070397      -0.00670235      -0.00565231
N       18.24018670      16.86627794      13.81355120       0.00441921      -0.00083509      -0.00010799
C       17.22781438      17.38015691      13.08223086      -0.00027768       0.00200906       0.00303442
N       16.06725306      17.62598055      13.71613967       0.00042372      -0.00785318       0.00602410
C       17.36637344      17.64548176      11.67256356       0.00314035       0.00046897      -0.00969203
C       18.57782522      17.40494574      11.10602269      -0.00185171       0.00204763       0.00248831
H       18.78944395      17.57792368      10.05634495      -0.00402532       0.00059650       0.00750299
H       16.53941743      18.02297367      11.08423153       0.00450046       0.00664784       0.00374970
H       15.98427555      17.48526177      14.74340801      -0.00231914       0.00066334       0.00149021
H       15.29558363      18.03704470      13.20847435       0.00199312      -0.00214276       0.00501262
N       20.97447292      13.31968318      13.98953129       0.00633417       0.00511290      -0.00355172
C       20.31606222      13.28214613      12.76300895      -0.00402943      -0.00443618      -0.00793237
N       19.09638965      12.79738183      12.85230854       0.00672035      -0.01021756      -0.00239113
C       18.92701731      12.51641480      14.21194935      -0.00130972      -0.00170001      -0.00244975
C       17.83618551      11.92421477      14.92094406       0.04241755       0.01258709      -0.00377644
O       16.75136656      11.49716314      14.46787894      -0.00183937      -0.01447068       0.04034884
N       18.08224645      11.90020923      16.32382208       0.00729165       0.01922774       0.00608734
C       19.25430679      12.30920428      16.94447743       0.00201009       0.01474836       0.00165528
N       19.31690738      12.19679280      18.29897799      -0.00747008       0.03802970      -0.00932796
N       20.30193818      12.78318065      16.26777854       0.00518129      -0.00190982      -0.00814217
C       20.08529349      12.86026764      14.93806453      -0.00547285      -0.00070654      -0.00223326
H       20.79383371      13.62194794      11.85464843       0.00525739       0.00180646      -0.00219264
H       17.28639956      11.56012734      16.90267960       0.01882202       0.00173087       0.00698672
H       20.07764782      12.69731616      18.74292534      -0.00404640      -0.01544050      -0.00968740
H       18.46112176      12.05551921      18.84864126      -0.01268788      -0.00023346       0.00466244
C       11.61324334      14.06531843      17.93714468       0.00530984       0.00073842      -0.01787585
C       11.71050240      13.86807816      19.30425746       0.00327507       0.00840031      -0.00671572
C       12.96798108      13.78195549      19.93906899      -0.00591817      -0.00331415       0.01130000
C       14.12063270      13.87618344      19.19204542       0.00740375       0.00179000       0.00701294
C       14.07018103      14.05817084      17.78425939      -0.03818140       0.00650798       0.02039451
C       15.25804497      14.12766605      17.02022632       0.07458925       0.01635016      -0.02588690
C       15.14593463      14.30905092      15.66237071       0.01089839      -0.00710859       0.02023304
N       16.11582881      14.40932877      14.68642023      -0.01086703      -0.01103775       0.00314960
C       15.51911599      14.41194120      13.43941629       0.00964832       0.00044120       0.00218338
C       16.13365696      14.34893636      12.18640049       0.00324319      -0.00139765       0.01361965
C       15.30691744      14.32674887      11.06956861       0.00255362      -0.00294134      -0.00544303
C       13.89731853      14.35588932      11.18822173       0.00823319       0.00900915      -0.00459508
C       13.28520864      14.39733875      12.43251730      -0.01425317       0.00854583      -0.01200860
C       14.09327505      14.42933180      13.59610364      -0.02829551       0.00339848       0.00392453
C       13.86325319      14.38406344      15.01534342       0.00908885      -0.01439252      -0.00623904
N       12.72202652      14.38885346      15.76607825       0.00616448      -0.00688079       0.00293620
C       12.78298668      14.17658183      17.15154269      -0.04957293       0.00709984      -0.00128915
C       11.42393209      14.66564799      15.10017065      -0.00142542      -0.00201060       0.00175658
H       10.63162943      14.11722023      17.48494911      -0.00117757      -0.01476173       0.00523220
H       10.80097614      13.78186098      19.88990264      -0.00709213      -0.00134160       0.01386905
H       13.02208782      13.64521427      21.01440596       0.00180749       0.00722531       0.00272486
H       15.09515580      13.81179955      19.66118339      -0.00260196       0.00062118       0.00555050
H       16.21998859      14.02535703      17.50623815       0.00240912       0.01035538      -0.00086081
H       17.11361581      14.32390213      14.83985763       0.00192473       0.00107164       0.00048182
H       17.21075918      14.25607637      12.10612107       0.00090863      -0.00203374       0.00226000
H       15.75316361      14.25774853      10.08210331      -0.00049879       0.00253151       0.00106547
H       13.28555605      14.31679984      10.29279594       0.00161362       0.00237364      -0.00175092
H       12.20470793      14.37033855      12.49369982      -0.00356304       0.00384071      -0.00566106
H       11.60286178      15.32244314      14.25150304       0.00121048      -0.00067311       0.01133394
H       10.95552753      13.73666592      14.76200648      -0.00491081      -0.00197975       0.00511907
H       10.76252205      15.18549419      15.78955816      -0.00620099       0.00704945       0.00377489
H       18.10898055      15.51669664      21.31904956       0.00565746       0.00227491       0.00429529
H       20.53435516      16.78589671      11.47955460       0.00024425       0.00047514      -0.00831392
H       14.97894742      10.74081391      21.02995167       0.01288740      -0.00629355      -0.00137657
H       21.86273176      13.76775878      14.18284514      -0.00867182       0.00371936       0.00540549
89
Lattice="33.09589358715483 0.0 0.0 0.0 27.524783101306795 0.0 0.0 0.0 31.504101822081175" Properties=species:S:1:pos:R:3:forces:R:3 energy=-12382.993812003431 pbc="F F F"
N       14.22429554      10.29828451      20.23235208       0.00913462       0.01323501       0.00021906
C       15.31302032      10.74376092      19.44216555       0.01299847       0.00985710      -0.00460433
O       16.36972640      11.07484622      20.01421795       0.00287552       0.00810463      -0.00264052
N       15.12431547      10.79819797      18.09160158       0.00452720       0.00152158       0.00450817
C       13.92749449      10.50690464      17.54606863       0.00699289      -0.00868982      -0.02541793
N       13.80498912      10.64548078      16.20815256       0.00545125       0.00837768       0.00900349
C       12.80549575      10.09893969      18.35067462       0.01104803      -0.00192319      -0.00268886
C       13.00562871       9.99823248      19.69147956       0.00248009       0.00430454      -0.00689056
H       12.23069239       9.68363184      20.38279884       0.01221943       0.00532424      -0.00799870
H       11.84210393       9.86860747      17.91248928       0.01171343       0.00519209      -0.00329461
H       14.64437080      10.84026247      15.62455660       0.01139050       0.00486247      -0.00045406
H       12.96764328      10.30745618      15.75165033       0.00975785      -0.00093074      -0.00300973
N       16.48958849      16.41824268      20.66155530      -0.00725617      -0.01642215      -0.02486000
C       15.15623883      16.83951928      20.72020315       0.01029058       0.00684428      -0.00565540
N       14.66986364      17.14195551      19.53733640       0.00466501       0.00526870       0.00747677
C       15.72712993      16.93734639      18.65386028      -0.00630897      -0.01712509      -0.00276034
C       15.79438909      17.06002756      17.23354460       0.00585440       0.01440692      -0.01025973
O       14.87229769      17.33422215      16.42979768       0.03790218      -0.00371936      -0.01654711
N       17.09541644      16.76671855      16.74348835      -0.02119926      -0.01046439      -0.01584674
C       18.14883920      16.28517370      17.50284975      -0.00519569      -0.01502861       0.01660007
N       19.26884427      15.90528750      16.82823359       0.01354560       0.01547290      -0.00284055
N       18.07180267      16.11956503      18.82527499       0.01370501       0.01935938       0.00804704
C       16.87032936      16.47808349      19.33345194       0.01914084      -0.00462747       0.01154683
H       14.62550443      16.90254559      21.66066430      -0.01541325      -0.01021499      -0.00525276
H       17.24125140      16.88235831      15.71712865       0.01042171      -0.00035224       0.00676149
H       20.07081741      15.66557639      17.39778825      -0.00449583      -0.01545439      -0.01234592
H       19.42924038      16.16184718      15.84393208       0.01235467      -0.02598049       0.01754367
N       18.96836706      17.29155346      12.00639108       0.00570682      -0.00274542      -0.00210471
C       18.78376094      16.95348713      13.37225344       0.00652855      -0.00018769      -0.00486556
O       19.73295666      16.44390369      14.00016268      -0.00296037      -0.00094308      -0.00027459
N       17.55790893      17.20294159      13.91505563      -0.00763669      -0.01130668       0.00259887
C       16.55494345      17.71142701      13.16554232       0.00671315      -0.01344636      -0.00226257
N       15.34608372      17.86840256      13.73793692       0.01525898      -0.00487893       0.00086029
C       16.74653747      18.06529154      11.78235421       0.01226622      -0.00434259      -0.00748294
C       17.97363563      17.84517717      11.24427166       0.01119458       0.00175761      -0.00004217
H       18.22129826      18.08251335      10.21549768       0.01231404      -0.00874895      -0.00106187
H       15.94421757      18.48864413      11.19110619       0.00492161       0.00038515      -0.00931048
H       15.18518783      17.66309691      14.74538694       0.00406080       0.00661391       0.01311880
H       14.60258866      18.30325908      13.20775458       0.00337432      -0.00631823       0.01192272
N       20.51649825      12.37275565      14.11473394       0.00816480       0.00900606      -0.00487018
C       19.86336970      12.35331027      12.88084882       0.00965912       0.00521471      -0.00100222
N       18.59035058      12.03887428      12.98508856       0.01041194       0.00658820       0.00252842
C       18.38568393      11.83474049      14.35228288      -0.00586623       0.01228062      -0.00278605
C       17.21570848      11.44767065      15.08050266       0.00886722       0.00671932      -0.00368799
O       16.06506825      11.21644335      14.64636981       0.00762281       0.00454725      -0.00801567
N       17.46646421      11.39829660      16.47721514       0.00392916       0.00595210       0.00162957
C       18.68349733      11.66494672      17.08848247       0.00973163       0.01297482      -0.00065872
N       18.71766493      11.60376503      18.44125315       0.00817148       0.00523785      -0.00086749
N       19.78299916      11.99178622      16.40540172       0.00580967       0.01059397       0.00028436
C       19.57634964      12.05101373      15.07350831       0.01075441       0.00931048       0.00369930
H       20.38649481      12.57104187      11.95951065       0.00537103       0.01095856      -0.00112049
H       16.64498271      11.15375254      17.07009696       0.00966838       0.00335735      -0.00369313
H       19.60581919      11.78539900      18.88868434       0.00828050       0.00455445      -0.00179463
H       17.89277014      11.37735805      19.01233633       0.00575156       0.01063151      -0.00419913
C       11.90506080      14.03858089      17.93851068      -0.00761972      -0.00307915      -0.00148558
C       12.03442458      13.82706573      19.29964778       0.00118939       0.00504091       0.00437242
C       13.30705257      13.72412099      19.90202677      -0.00471643      -0.00189593      -0.00423101
C       14.43768034      13.80268427      19.12351283      -0.00138634      -0.01268017       0.00495812
C       14.35071542      13.98872550      17.71939582      -0.00324782      -0.00393790       0.00110043
C       15.51618777      14.03145319      16.92109401      -0.00609969       0.00131435      -0.00021700
C       15.36999405      14.21230355      15.56854014      -0.00331415      -0.00389676       0.00237467
N       16.31859172      14.31277070      14.57129345      -0.00289352       0.01958615      -0.00405154
C       15.68891478      14.38134749      13.34260846       0.00030905       0.00043349       0.00975220
C       16.27232234      14.36137205      12.07580003       0.00203271      -0.00291974       0.00868673
C       15.42131062      14.44277193      10.97945895      -0.00450972      -0.00207899      -0.00344116
C       14.01871014      14.52550523      11.13743219      -0.00764852      -0.00628738      -0.00764646
C       13.43651752      14.51837567      12.39811996      -0.00708390      -0.00187691      -0.00242558
C       14.27039755      14.44970331      13.53838783      -0.00261635       0.00098987      -0.00397133
C       14.07423180      14.35335738      14.96064799      -0.00761355       0.00167533      -0.00155089
N       12.96074053      14.38410034      15.74412806      -0.00461050       0.00220189       0.00372810
C       13.05516474      14.14469351      17.12239333       0.00156837       0.00422947       0.00325707
C       11.65686213      14.75090971      15.13728802      -0.00390088       0.00451280       0.00035378
H       10.91292237      14.10302822      17.51126326      -0.00061192      -0.00009050       0.00341854
H       11.13983802      13.74278575      19.90840625      -0.00543171       0.00572688       0.00235873
H       13.39205068      13.57933477      20.97375180      -0.00709007       0.00294854       0.00576030
H       15.42360171      13.70621174      19.56606856      -0.00517357      -0.00815863      -0.00084846
H       16.49308507      13.93240816      17.38059878      -0.00205791      -0.00609917       0.00012444
H       17.30326687      14.10191963      14.69229931       0.00526716      -0.00574127      -0.00082841
H       17.34392160      14.24564352      11.96557113      -0.00531344      -0.00055124       0.00302362
H       15.84111780      14.41954229       9.97843517      -0.00577264       0.00089834       0.00029259
H       13.38592260      14.56842965      10.25708750      -0.00362834      -0.00079653      -0.00343705
H       12.35763572      14.53677364      12.48498952      -0.00733124      -0.00171338      -0.00697232
H       11.84326910      15.41431554      14.29630478      -0.00557775       0.00514735      -0.00096365
H       11.11966884      13.85923069      14.80110704      -0.00114980      -0.00046126       0.00040778
H       11.05983440      15.29647222      15.86497453      -0.00571145       0.00341443      -0.00073894
H       17.09326544      16.15571522      21.43231873       0.00552890       0.00258602       0.02111184
H       19.89474017      17.13026618      11.62493043       0.02273781      -0.00323239       0.00879574
H       14.39314252      10.22521340      21.23071255       0.00460279       0.01138742       0.00031470
H       21.48761493      12.59935144      14.29772897       0.00227543       0.00854172      -0.00373890
89
Lattice="33.09589358715483 0.0 0.0 0.0 27.524783101306795 0.0 0.0 0.0 31.504101822081175" Properties=species:S:1:pos:R:3:forces:R:3 energy=-12383.180961817401 pbc="F F F"
N       13.42289315      10.13838936      20.39051507      -0.00740478      -0.00482596      -0.00602667
C       14.55065482      10.44734388      19.58652746       0.00609197       0.00571093       0.00227491
O       15.65690863      10.57597150      20.14203182      -0.00440893      -0.00067980       0.00959947
N       14.34206526      10.59699149      18.24590664       0.03213982       0.00667561      -0.05297861
C       13.11699381      10.42903262      17.71438770      -0.00243586       0.00691627       0.00169847
N       12.98845790      10.61253023      16.38149066      -0.00034967       0.00298865      -0.00482596
C       11.97442646      10.09199686      18.52575261       0.00363965       0.00590994      -0.00618248
C       12.17719683       9.95262740      19.86396883       0.00413485       0.01407113       0.00108295
H       11.38615398       9.69504596      20.56011416       0.00036715       0.00217053      -0.00498691