89
Lattice="39.84374035 0.0 0.0 0.0 24.903745809999997 0.0 0.0 0.0 31.711564539999998" Properties=species:S:1:pos:R:3:forces:R:3 energy=-12381.910475410426 free_energy=-12381.910475410426 pbc="F F F"
N       21.85857939      10.40838023      19.08414092       0.00982727       0.01192066      -0.01399812
C       23.06488392      10.73696395      18.41218775      -0.01877574       0.00491235       0.00082892
O       24.09390783      10.90906242      19.09196466       0.00384277       0.00083818      -0.00834632
N       23.01611656      10.84423073      17.05203122      -0.01919689      -0.00648792       0.00789689
C       21.85982217      10.67211618      16.38403369       0.00605341      -0.00278605       0.01800544
N       21.88797409      10.79513863      15.04217776       0.02530737       0.01415958      -0.02174331
C       20.62979339      10.35375108      17.06697316       0.02171605      -0.01257938      -0.02360890
C       20.67815330      10.23819574      18.42102032      -0.00361703      -0.00019129       0.01149489
H       19.81069151      10.00316872      19.02798518      -0.00278039       0.01524870       0.00224457
H       19.70346561      10.19881371      16.52625568       0.01858548       0.01930333       0.00395796
H       22.76656921      11.02687362      14.53966295       0.00278965      -0.00484190      -0.01258555
H       21.04178765      10.65840625      14.50693947       0.02874596       0.00724743       0.01255521
N       24.04181422      13.84048880      20.60040994       0.00931665      -0.02033383      -0.01377546
C       22.67319305      13.61582295      20.74077779       0.03592963       0.01426962       0.02218605
N       22.02573354      13.68077851      19.59291311       0.04424406       0.01339391       0.01510883
C       23.01014115      13.95273703      18.64832847      -0.00811132      -0.00187228      -0.00716001
C       22.92807601      14.11782880      17.22847214       0.00406800      -0.02497107      -0.01389424
O       21.91209249      14.08059651      16.49769169       0.00351727      -0.04211982       0.00701808
N       24.20628544      14.33772985      16.65905028      -0.00127424      -0.00130766      -0.00003651
C       25.39978258      14.39667032      17.35390769      -0.01096576       0.06838364       0.02022430
N       26.52095122      14.62784973      16.63616737      -0.00610894      -0.00986070      -0.00347407
N       25.48053743      14.24789853      18.68364184      -0.04988815      -0.02249047       0.03002586
C       24.28021299      14.04003462      19.25536624      -0.04160405      -0.00883585      -0.00478997
H       22.22835661      13.43159163      21.70926126      -0.01481933      -0.00500491       0.00771382
H       24.21791202      14.50405284      15.62699413      -0.00885282      -0.00310281      -0.01377237
H       27.39862836      14.57199959      17.13511665       0.00507073      -0.00834734      -0.00953931
H       26.52053917      14.63416147      15.60385294       0.02471190       0.00306887      -0.04196246
N       25.39532921      14.26625610      11.82671904      -0.00684839      -0.00863582      -0.01537571
C       25.40120649      14.54696760      13.21188272       0.00226103      -0.00481979      -0.02139826
O       26.49525614      14.56172147      13.81087572       0.00754619      -0.02094832       0.02760079
N       24.19679309      14.75738477      13.82060967       0.00504039       0.04217741      -0.05553172
C       23.06004157      14.75824156      13.10380065      -0.02048758       0.00833449      -0.00667973
N       21.89689822      14.90933698      13.78655207      -0.00926523      -0.00811440       0.00294854
C       23.06081916      14.60267364      11.67438930      -0.00367308      -0.03157572       0.01009261
C       24.25201176      14.29762098      11.08728500      -0.02370352      -0.01200860       0.00179720
H       24.34961516      14.06788845      10.03232926       0.00772102      -0.02229918      -0.00952080
H       22.14602845      14.64573101      11.09438616       0.02287871      -0.00426906       0.02043462
H       21.89264511      14.70461877      14.80322302      -0.02318364       0.01208933       0.00838797
H       21.02786972      14.79360885      13.28269563      -0.00000000      -0.00810309      -0.00329204
N       28.88450768      11.90785337      13.59464247       0.01749944      -0.00312286       0.00223223
C       28.37446838      11.96625397      12.30224837       0.03174541      -0.00192627       0.00928477
N       27.07079748      11.76811300      12.26213933       0.02983303       0.00804601       0.03194493
C       26.69916202      11.56879896      13.59046458       0.00830209      -0.00999748       0.00883328
C       25.41089308      11.39873422      14.19295221       0.02405781      -0.00393739       0.00746134
O       24.29212015      11.35802564      13.63461790      -0.01579789      -0.00508101      -0.00109735
N       25.50425092      11.29983088      15.60505795       0.00060061       0.00151027      -0.00603129
C       26.67347023      11.37870549      16.33963614      -0.01049936       0.00283233      -0.00097393
N       26.57125303      11.24399722      17.68108674       0.02029320      -0.00865176      -0.01005559
N       27.87500829      11.57680487      15.78230505      -0.02050249       0.00611923      -0.02241385
C       27.81805268      11.66378598      14.43946870      -0.00291306      -0.00070911      -0.01098581
H       29.01202101      12.15211463      11.44830148      -0.00554381      -0.00793597      -0.00428140
H       24.60605329      11.16543653      16.11695452       0.01836231      -0.00115083       0.00850984
H       27.41379105      11.40487991      18.21628294      -0.01235621      -0.00204146       0.02048912
H       25.66818742      11.16890329      18.17207049       0.02712514       0.00058775       0.00772205
C       10.99106451      11.77412001      17.94877431       0.00186096      -0.02585142       0.01949925
C       11.11921149      11.58824863      19.31823681       0.02348137       0.01061094      -0.01605963
C       12.39113393      11.46135075      19.91371882       0.01716880       0.01863947       0.00961284
C       13.52652735      11.52519648      19.12979295      -0.00431945       0.02851405       0.00098216
C       13.44276723      11.73367602      17.72591584      -0.01896754      -0.00862091       0.00072042
C       14.60724093      11.83567601      16.92060457      -0.03305616       0.00643187       0.01141724
C       14.44886664      12.01767442      15.56509107      -0.00994503       0.05255952      -0.00102638
N       15.40701120      12.15012617      14.56543289      -0.05781332       0.01787174      -0.00577367
C       14.76257144      12.30880622      13.33743252       0.01577012      -0.00960976       0.00934390
C       15.33180047      12.49170439      12.07764337       0.00591148      -0.01609871      -0.03976880
C       14.47232424      12.57323998      10.98138589      -0.00336763       0.04148732       0.03863186
C       13.07451118      12.45285567      11.14082406       0.00407160      -0.06790747      -0.03134484
C       12.50570435      12.26456031      12.39238468      -0.00527128       0.06072843       0.04627009
C       13.34423144      12.22347942      13.53327805       0.01199985       0.01048547      -0.01796944
C       13.15411880      12.08392865      14.95291077      -0.03497266       0.02139672       0.01719143
N       12.02975417      12.06220465      15.74105516       0.00944521       0.00548519      -0.00920866
C       12.13781471      11.85786883      17.12794388      -0.04054064      -0.01168052      -0.00371987
C       10.70345947      12.33989485      15.12970842       0.00287604      -0.01628434       0.01735495
H        9.99787708      11.83569818      17.52461451      -0.00005245      -0.00680365      -0.00062426
H       10.22621651      11.53986646      19.93458119       0.02059968      -0.02650602      -0.02865546
H       12.47351072      11.31736924      20.98622318       0.01002987      -0.01476688      -0.00943801
H       14.51089735      11.42626761      19.57809155      -0.00164602       0.01134885       0.00258807
H       15.59098409      11.76338607      17.37418162       0.00601998       0.03089078       0.00790563
H       16.36526498      12.42420617      14.74702966       0.01470517      -0.09457649      -0.02407838
H       16.40901154      12.55278122      11.95462915      -0.01044845       0.01333169       0.00101919
H       14.88613569      12.72700003       9.98887133      -0.01366027      -0.02902930       0.02714057
H       12.43503453      12.49425408      10.26435805       0.01174326      -0.00424952       0.02137204
H       11.43240550      12.14885385      12.47049597       0.00184040      -0.02188832       0.01300464
H       10.85198518      12.93760554      14.23459903      -0.02610493       0.01996565       0.02633170
H       10.18268923      11.41155302      14.87901831       0.04191156      -0.04492489      -0.01522659
H       10.09319950      12.91523923      15.82388398       0.03005568       0.04895381      -0.00691935
H       24.75561199      13.79623475      21.31908919      -0.02757148      -0.00928220      -0.00462490
H       26.23773164      13.81797995      11.46974376      -0.00314240       0.00780073       0.00630589
H       21.90172051      10.39653216      20.09785507       0.01600100       0.01229553      -0.02931315
H       29.84499224      12.04675411      13.88849506      -0.01634502      -0.00256802      -0.01653991
89
Lattice="39.84374035 0.0 0.0 0.0 24.903745809999997 0.0 0.0 0.0 31.711564539999998" Properties=species:S:1:pos:R:3:forces:R:3 energy=-12382.020407183505 pbc="F F F"
N       20.61323814      10.82893503      19.07965608      -0.01001136      -0.01697134       0.01119458
C       21.83908849      11.07327234      18.41196453       0.01299281       0.02079457      -0.00862914
O       22.86914498      11.21610106      19.09712815       0.00197615       0.02033486      -0.03857838
N       21.80932067      11.14207396      17.04901978      -0.00489024      -0.02187289      -0.00403612
C       20.65360129      10.99984328      16.37605120       0.00808715      -0.00854789      -0.00519054
N       20.69596347      11.10742224      15.03141870       0.00154626      -0.01527595       0.01008284
C       19.40695519      10.74638493      17.05322693      -0.00827432      -0.00642570       0.00493292
C       19.43304586      10.68285626      18.41214134       0.02181016       0.01191706      -0.00734153
H       18.55153760      10.51288983      19.01967536      -0.02074829       0.00582869      -0.00422124
H       18.48254495      10.61533446      16.50486993      -0.02163326      -0.00128144      -0.00540652
H       21.59938354      11.25741924      14.53622144      -0.00656043      -0.00400784       0.00345608
H       19.87200737      10.89258662      14.48728099       0.01012706      -0.00202963       0.01674662
N       22.81383275      14.22318764      20.71887440      -0.00863479      -0.02070304       0.01722588
C       21.44942226      13.98379549      20.86326096      -0.01039703      -0.01088245      -0.00010027
N       20.80592597      13.99204675      19.71123148       0.01023865       0.01008592      -0.02100540
C       21.78993983      14.24839860      18.75748195      -0.01199420      -0.00539572      -0.00096416
C       21.72323495      14.33679585      17.32897642       0.00464907      -0.00642313       0.00612025
O       20.72237147      14.20962369      16.58652250      -0.02307154      -0.02181581      -0.01561431
N       22.99710469      14.58087532      16.76051060       0.00056461       0.00983807      -0.01096884
C       24.18152182      14.70087087      17.46494699       0.00438116       0.00404229      -0.00238701
N       25.30543723      14.92735704      16.75349771      -0.01024122      -0.00730656       0.01751281
N       24.25113511      14.59428369      18.79843292       0.01742848       0.00065563       0.00810772
C       23.05294301      14.38060896      19.36836935      -0.00716772       0.00531653      -0.00071580
H       21.00352070      13.83389966      21.83766087      -0.01593776      -0.00976197      -0.00935727
H       23.02865910      14.67494332      15.72040795       0.00018358       0.00204968       0.00206922
H       26.17596784      14.92849973      17.26691300       0.01446297       0.01632136       0.00187022
H       25.32193144      15.00314212      15.72268435       0.00038515       0.00514529       0.00483059
N       24.45164426      14.63153492      11.91418910       0.00708236       0.00002108      -0.00369416
C       24.35248700      14.86298394      13.30439084       0.00208157      -0.00214276      -0.00375175
O       25.39593449      15.10844458      13.94221640      -0.00376204       0.00672035       0.00072505
N       23.11187026      14.77989405      13.87188081      -0.02480498      -0.00816788       0.01884722
C       22.04731634      14.42652512      13.13046746       0.01634656      -0.00715692      -0.00965809
N       20.85448053      14.32556710      13.76452417      -0.01570481       0.00118116      -0.00151541
C       22.14774851      14.16485795      11.72170843      -0.00546102      -0.00899680      -0.00752562
C       23.38290064      14.24746468      11.15909094      -0.00354041       0.01002216       0.00100839
H       23.58247237      14.01453188      10.11952950      -0.00592691       0.00009050       0.00082790
H       21.28688825      13.86688075      11.13592926       0.00563020      -0.00689261       0.00257059
H       20.81878528      14.32275400      14.80182049      -0.01704539      -0.01852634       0.00085412
H       20.09272643      13.88800497      13.26608585      -0.02315536      -0.00371884      -0.00231965
N       27.70431592      12.14516331      13.62954320      -0.00050805       0.01377237       0.00955885
C       27.19413965      12.13865512      12.33189976      -0.00126910      -0.01033224       0.01924831
N       25.88976518      11.94706118      12.30033597       0.01511963      -0.00109015       0.00336043
C       25.51632137      11.82098456      13.63567518      -0.00119094       0.00911919       0.00708030
C       24.23273361      11.62979678      14.23957507      -0.01176640       0.01483424      -0.01584828
O       23.11952822      11.51461840      13.67698071       0.01783780       0.05937295      -0.00245643
N       24.31997013      11.59658700      15.65317087      -0.00283901      -0.00521883      -0.00878340
C       25.48630495      11.71444449      16.38648598      -0.07558067       0.00395024       0.01016254
N       25.37816120      11.61344225      17.73074544       0.01129691       0.00339129      -0.00720577
N       26.68649079      11.90984752      15.82747631       0.00657225       0.01264777      -0.00974860
C       26.63486543      11.95086292      14.48246052      -0.00827073       0.01345510       0.00240758
H       27.83628416      12.26326300      11.46995622      -0.00601741       0.00240295       0.00042680
H       23.42314041      11.44882217      16.16406722      -0.00339694      -0.00240398      -0.01446914
H       26.21610329      11.77397569      18.27307674      -0.00697437       0.00752768      -0.00763309
H       24.47592706      11.50709402      18.21530495       0.00735027      -0.00287295      -0.00109992
C       10.92845398      12.04471587      17.91695664       0.00105878       0.00983653       0.00980670
C       11.03938528      11.89026917      19.29152609       0.02164458       0.02185284      -0.02847343
C       12.27665928      12.07386727      19.94501652      -0.00648278       0.00514015      -0.00368593
C       13.39949209      12.39192881      19.20828076       0.00093074      -0.00071528       0.01020625
C       13.33354842      12.54990226      17.79692667       0.00211139      -0.00235770      -0.00696255
C       14.49105107      12.85083506      17.03505498       0.00867182       0.00858131       0.01201734
C       14.36655104      12.93222708      15.66605601       0.01412924       0.00417444      -0.01149900
N       15.32899410      13.15657143      14.69315366      -0.00854943      -0.00181828      -0.00318611
C       14.73426474      13.12170682      13.43510645       0.00693735       0.00726491       0.01234592
C       15.33461975      13.27371456      12.18431340      -0.00094000       0.00144187      -0.00156992
C       14.52579675      13.14354002      11.05594516       0.00055279       0.00149021       0.01553461
C       13.14845069      12.85573094      11.17499933       0.00113283      -0.00254745       0.00010747
C       12.54562276      12.71054734      12.41834168       0.01778484       0.00890476      -0.01272902
C       13.33112025      12.86095988      13.58717236      -0.00196844      -0.00553559       0.00685508
C       13.10393413      12.76445912      15.00514740       0.00124956       0.00558598      -0.00687976
N       11.97099131      12.57157586      15.75276919       0.01528624       0.00301385       0.00610380
C       12.05935916      12.38947722      17.14427667       0.00310126      -0.00646375      -0.00636348
C       10.64431602      12.60697393      15.08563371       0.00281947      -0.01120333      -0.01192272
H        9.96780565      11.87590220      17.44872881      -0.00510827      -0.01068088       0.00581378
H       10.15875800      11.62139650      19.86554982       0.00021340      -0.00869187       0.00756264
H       12.34267454      11.95824510      21.02178068       0.00310435      -0.00561529       0.00076670
H       14.36035939      12.52403378      19.69717974      -0.00238084       0.00804961      -0.00015735
H       15.44878345      12.99143687      17.52798380      -0.00496069       0.01310697       0.00134829
H       16.29975448      13.37370578      14.87988506       0.00964729       0.00834272       0.01267451
H       16.39684607      13.48018153      12.09620937      -0.00491801       0.00201112      -0.00387002
H       14.96464778      13.25391814      10.06949674      -0.00328330       0.00227028       0.00039132
H       12.55149119      12.73711724      10.27736677      -0.00770200       0.00512575      -0.01350035
H       11.49199385      12.46732475      12.46891892       0.00670389      -0.00465524       0.01160853
H       10.70776864      13.26361768      14.22092758      -0.00129172       0.00136937       0.00267343
H       10.33936258      11.60337125      14.77445914      -0.00178332       0.00085258       0.00015067
H        9.90406818      13.02424739      15.76593547       0.00496377       0.00014861       0.00300768
H       23.52478166      14.22261247      21.44183949      -0.02444399       0.00092971      -0.00793802
H       25.39534665      14.54567618      11.55132266      -0.00081350      -0.00558701       0.01073950
H       20.64778012      10.87244680      20.09228479      -0.00739089       0.00877826      -0.00019232
H       28.66764476      12.27964211      13.91603765      -0.01849343       0.00854429      -0.00614082
89
Lattice="39.84374035 0.0 0.0 0.0 24.903745809999997 0.0 0.0 0.0 31.711564539999998" Properties=species:S:1:pos:R:3:forces:R:3 energy=-12382.583056527059 pbc="F F F"
N       19.82005410      10.77020941      18.94044529      -0.02439463      -0.01470465       0.00040521
C       21.05235322      11.04820376      18.29489888      -0.03460397       0.00429374      -0.01060426
O       22.07081651      11.17496610      18.99897670      -0.03842154       0.00738061      -0.00512575
N       21.03053304      11.16508908      16.93541258       0.00558341       0.00722069       0.00955422
C       19.87934280      11.05346394      16.24498433      -0.01300824       0.00299996       0.01626891
N       19.94742879      11.16087965      14.90521526       0.01677594      -0.00587446      -0.01282518
C       18.61692815      10.83623965      16.90824519      -0.00010901      -0.00417701       0.01437144
C       18.63777211      10.71117133      18.26207473      -0.00835969      -0.01005970      -0.00387517
H       17.74503579      10.56276649      18.85745985      -0.03009528      -0.01354920       0.01145632
H       17.68557504      10.78391460      16.35783413       0.00490618      -0.00098422      -0.01702019
H       20.85059092      11.38606864      14.43676745       0.00465473       0.01835562      -0.01210578
H       19.11109835      11.07496902      14.34544419      -0.01690295       0.00722326       0.02600003
N       21.02993373      14.09461917      20.48242118      -0.03240104      -0.00929557       0.00186714
C       19.65576036      13.86581810      20.46842360      -0.02244830      -0.01771130       0.01086291
N       19.14631415      13.90841666      19.25299665      -0.08675417      -0.01927402      -0.03790835
C       20.23535443      14.18202157      18.41802818      -0.00408086      -0.01324632      -0.01555312
C       20.33185778      14.31854332      16.99946564      -0.02632090      -0.01321753      -0.01071636
O       19.40966755      14.20888809      16.13883963      -0.01318565      -0.00251094       0.02920671
N       21.65569018      14.59345745      16.58788629      -0.02131702      -0.02063516       0.00541886
C       22.75691927      14.70021357      17.43274604      -0.02342789      -0.02196545      -0.01750613
N       23.95090309      14.97708924      16.87063237       0.02180553       0.01329003      -0.00532064
N       22.67150120      14.54177912      18.75705404      -0.02054312       0.01607197       0.00112717
C       21.42029266      14.29679306      19.17393691      -0.03450884      -0.00524711       0.00146142
H       19.10367098      13.69882653      21.38394930      -0.01905599      -0.01434573      -0.01473088
H       21.82887761      14.71809265      15.56512648      -0.03733036       0.00004628      -0.00723920
H       24.75590392      14.94947708      17.48356137      -0.04785440       0.00467529      -0.01185433
H       24.10185546      15.06473532      15.85197333       0.01292082       0.01919226       0.00496891
N       23.77227462      14.94414129      11.96366753      -0.00232376      -0.01839213       0.00338100
C       23.51768280      15.05099162      13.34933568       0.00107369       0.00174578      -0.00646478
O       24.47893012      15.23117478      14.12055242      -0.01600718       0.00299122      -0.00596342
N       22.21876424      14.94075361      13.76147239      -0.03762913       0.01350601       0.01684484
C       21.23934499      14.72665613      12.87077822      -0.01525950       0.01209550      -0.00406594
N       19.97874991      14.59044810      13.35434399      -0.01311057       0.00508873      -0.00552993
C       21.49030191      14.62462538      11.46109636       0.00172624      -0.01548627       0.01001496
C       22.78732691      14.70077960      11.05498109      -0.06933649       0.01914958      -0.01105369
H       23.09784779      14.57615222      10.02427251      -0.00519003      -0.01064797      -0.01000828
H       20.69370447      14.42864240      10.75507405      -0.00503319      -0.00245695      -0.02300675
H       19.79495314      14.54836086      14.37015602      -0.01751744      -0.00285907      -0.01020265
H       19.20280013      14.56628546      12.70993685       0.01591513       0.00273463      -0.02203487
N       26.96697834      12.23370887      13.65432716      -0.02598666       0.05720294      -0.00653677
C       26.46678432      12.29624861      12.35344965       0.00118271      -0.00469483      -0.00352138
N       25.15518990      12.17322497      12.30884776       0.01698214      -0.01430408      -0.00747934
C       24.76588026      12.02342325      13.63809197      -0.00455085      -0.00019335       0.00770971
C       23.47341705      11.86170115      14.22832695      -0.00464033       0.00803933      -0.01694614
O       22.35651569      11.81500897      13.65994593      -0.02013482       0.04409339       0.02400999
N       23.55254245      11.76439217      15.63949350      -0.02944530      -0.00326222       0.00441973
C       24.71546869      11.83215224      16.38661065       0.00305087       0.00383403      -0.02669628
N       24.59114685      11.74330890      17.73134471      -0.01239169      -0.02108922       0.01207699
N       25.92409309      11.99564736      15.83880655      -0.01418992       0.00210728      -0.00186045
C       25.88262376      12.07248873      14.49451052      -0.00132360       0.00016249      -0.01647974
H       27.11959088      12.41092704      11.49780848      -0.00049057       0.00566106       0.01595524
H       22.64932231      11.58365840      16.12643646       0.01397960       0.01469180       0.00406337
H       25.44445403      11.73699520      18.27359747      -0.00370496       0.00003445      -0.01544205
H       23.69060582      11.56558042      18.19619416       0.02313890       0.00486658       0.00076516
C       11.65329886      12.39078973      18.15701164       0.00673783       0.00566620       0.00201472
C       11.66339055      12.28772854      19.53779405       0.01494582       0.00896698      -0.00863634
C       12.84223026      12.53447709      20.27562393       0.01517105       0.01255624       0.00528413
C       14.01064436      12.85734280      19.61738807       0.00463313       0.00076413       0.00141719
C       14.05666763      12.94657808      18.19739874       0.01013272       0.00692192       0.01271513
C       15.27342138      13.20738564      17.51466445       0.02797823       0.00030339       0.01810880
C       15.25724893      13.18638817      16.13704325       0.00507741      -0.00841625       0.00639793
N       16.29869630      13.30291960      15.22882445      -0.00711836       0.00467941       0.01136788
C       15.78500101      13.18149895      13.94041906       0.02384596       0.01125938      -0.00287758
C       16.46151899      13.16674590      12.71598552       0.02276095      -0.00265801       0.02469545
C       15.71492875      12.98355632      11.55308606       0.02950238      -0.00890630       0.01452931
C       14.31538819      12.79942823      11.59422716       0.02095552       0.00324782       0.01320776
C       13.63677354      12.79764936      12.80406308       0.01515665      -0.00319382      -0.01037337
C       14.36033339      13.00075437      14.00415195       0.01512426      -0.01786865       0.00163574
C       14.03357659      13.00259346      15.40117924       0.01752927      -0.00607500      -0.01156482
N       12.84831122      12.85654583      16.06547412       0.00609763      -0.00552684       0.00288889
C       12.83508153      12.73505116      17.46154394       0.00085052      -0.00020877       0.01381608
C       11.57083584      12.84385311      15.30165607       0.02542873      -0.00280919       0.00384894
H       10.73656092      12.17139932      17.62432430       0.02575269       0.01014917       0.01032658
H       10.75084350      12.00355168      20.05211644       0.00964935       0.01070556       0.01708035
H       12.82571342      12.45819406      21.35755216       0.01116167       0.00870884       0.01173400
H       14.92598529      13.03908083      20.17178741       0.01798127       0.00055330       0.00751893
H       16.19479852      13.39073989      18.06385278       0.02433858      -0.01562665       0.01139564
H       17.26827634      13.50179984      15.49411228       0.01294036       0.02421414      -0.00535047
H       17.53998794      13.26360438      12.67950968       0.02985462      -0.00646273       0.01410816
H       16.22167127      12.96115539      10.59340050       0.01952959       0.01187541       0.00518026
H       13.76571501      12.63999668      10.67203799       0.03077354       0.01285552       0.00530162
H       12.56834322      12.62314251      12.80978950       0.03419053      -0.01079761      -0.00556181
H       11.68328814      13.47744510      14.42551251       0.00913667       0.01536131       0.00168921
H       11.31174768      11.82455689      14.99968896       0.00591508       0.01166715       0.00261893
H       10.77499235      13.26364072      15.91338681       0.01438892      -0.00121922       0.01151957
H       21.66021911      14.06699472      21.27614542      -0.02865752       0.00781924       0.00677331
H       24.75085844      14.87644023      11.70283518      -0.01003090      -0.01900611      -0.00272177
H       19.85032626      10.74250942      19.95350262      -0.01388961       0.00053582       0.00847590
H       27.93039333      12.33425210      13.95241032       0.00848567      -0.00948840       0.00325039
89
Lattice="39.84374035 0.0 0.0 0.0 24.903745809999997 0.0 0.0 0.0 31.711564539999998" Properties=species:S:1:pos:R:3:forces:R:3 energy=-12383.222834686714 pbc="F F F"
N       18.04834361      10.84786229      19.59388642      -0.02577891       0.04482822      -0.00897572
C       19.16129907      11.26523336      18.81423177      -0.02320112      -0.01055952      -0.00886928
O       20.20349441      11.60369285      19.39861335       0.00821622       0.01033892      -0.00225640
N       19.00260654      11.26554906      17.45819836      -0.01892383      -0.01305041       0.00302979
C       17.86025052      10.84021690      16.89100522      -0.00082532       0.01129126      -0.00277268
N       17.81368731      10.80013644      15.54039990       0.00460896      -0.02562979      -0.01208470
C       16.72395958      10.43624517      17.68183282       0.00257882       0.00786346      -0.01374718
C       16.86373768      10.46043785      19.03556667       0.00441047      -0.00201060      -0.01511860
H       16.06870686      10.18615780      19.72016770      -0.00633777      -0.01730815      -0.00868982