89
Lattice="32.01789743580095 0.0 0.0 0.0 24.195481590667228 0.0 0.0 0.0 32.73094516841341" Properties=species:S:1:pos:R:3:forces:R:3 energy=-12383.348306447162 free_energy=-12383.348306447162 pbc="F F F"
N       21.10060123      10.21372111      14.06827557      -0.00208465      -0.00867387      -0.02417197
C       21.06933575      10.09745140      15.46044946       0.01238655       0.03922681      -0.02449542
N       19.84224241      10.10664509      15.93551956       0.01116887       0.02409021      -0.01006176
C       19.01986415      10.21754184      14.81338899       0.00143673       0.00742072       0.00384946
C       17.59442968      10.24028481      14.69227135       0.02183844       0.02533514       0.01115807
O       16.74111892      10.22770532      15.61133839      -0.01653785      -0.00033219       0.01682479
N       17.18389760      10.29464936      13.34124836       0.00383969       0.02982069      -0.00176429
C       18.03371059      10.38170451      12.24856124      -0.00849081       0.02806719       0.01266371
N       17.46142257      10.43806439      11.02526199      -0.02436789       0.02014357      -0.03717713
N       19.36909618      10.39708169      12.36237366      -0.03456900       0.00504142      -0.01473551
C       19.78701809      10.28515387      13.63869894      -0.01159568       0.03839840      -0.02102803
H       21.97591716      10.00012720      16.04354845      -0.01471905       0.01043714      -0.00308121
H       16.15168819      10.32823426      13.18574478       0.03588232       0.03320580       0.01338825
H       18.06550981      10.72077562      10.26426245       0.00541423      -0.01753595      -0.00148404
H       16.44668907      10.56530499      10.90957137      -0.01757452      -0.00313366       0.01718114
N       20.18463126      13.62193562      11.92654019      -0.01871146      -0.00237519      -0.02004432
C       18.76708566      13.64650812      11.96168394      -0.03388920      -0.00603746      -0.06258837
O       18.14052258      13.57160781      10.88938736      -0.01906987       0.01662527      -0.00402943
N       18.17533528      13.76076902      13.19091021      -0.00665144      -0.04491409      -0.03742292
C       18.91933672      13.82757055      14.30908686       0.03118954       0.01232793       0.00220961
N       18.26906606      13.99320394      15.48166047      -0.01195974      -0.00717389       0.00063763
C       20.35451449      13.72745433      14.27957531      -0.00859983       0.02973275       0.01175920
C       20.94490542      13.62703438      13.05823841       0.04875686      -0.00987869       0.00586520
H       22.01793909      13.53960115      12.92549158      -0.00738318       0.02626896      -0.00505479
H       20.94336537      13.71537127      15.18813008      -0.01080789       0.01560917       0.00054816
H       17.23969382      13.96858061      15.51049833      -0.02687986      -0.01761720      -0.01200500
H       18.79160852      14.12197982      16.33710252      -0.03119777      -0.05370778       0.00823576
N       11.30294609      14.01527268      13.46660107      -0.01801109       0.01830368      -0.02529606
C       11.17412489      13.88574468      14.85103777      -0.01264674      -0.02350965      -0.02480086
N       12.33634230      13.72927620      15.45122370      -0.00703711      -0.02991273      -0.03101985
C       13.27498894      13.77638678      14.42194774       0.00995120      -0.02417506      -0.00242969
C       14.69357766      13.70792169      14.46326817       0.02162658      -0.01742128       0.00096159
O       15.41256914      13.55919554      15.48845231       0.05686664      -0.07356852      -0.01046902
N       15.27667354      13.82195675      13.19221737      -0.01029573      -0.01817976      -0.00098730
C       14.56558840      13.93519027      12.00453445      -0.00760892      -0.00675737      -0.00551759
N       15.27927057      13.99708881      10.86055677       0.00609454       0.01503376       0.00304933
N       13.22734883      13.99982572      11.95952286      -0.01413798      -0.00147941      -0.00170361
C       12.65437607      13.94416073      13.17587741       0.01938869      -0.01212378       0.00035841
H       10.20982343      13.93031165      15.33913589      -0.00704842      -0.02090101      -0.00402840
H       16.32184852      13.78869802      13.16448546      -0.00900915      -0.02505335      -0.00727468
H       14.75170232      13.93305305       9.99985658       0.02196134       0.00951000      -0.01137148
H       16.29391266      13.82615576      10.84111627       0.00618813      -0.03402495       0.01193095
N       12.45273605      10.64685199      11.48812804       0.00882146      -0.00176326       0.02087222
C       13.85664057      10.59737464      11.69706336       0.00452000       0.06289382      -0.02988702
O       14.60984259      10.68005180      10.71027533      -0.03821174       0.04498968      -0.04256564
N       14.29439819      10.47079584      12.98478344      -0.00133646       0.04975291      -0.00392093
C       13.42148132      10.42827975      14.00912205      -0.00366742       0.01242666       0.00692758
N       13.92440789      10.32058808      15.25397006       0.00790820      -0.01666949       0.00738524
C       11.99788636      10.51005304      13.80290710      -0.00235667      -0.00687205       0.00078316
C       11.55835760      10.61921126      12.52138053       0.00968740       0.00509336      -0.03245195
H       10.50862738      10.69489739      12.26042091      -0.00430866      -0.01238552      -0.01265343
H       11.30412755      10.50312876      14.63354978       0.00085721      -0.00871501       0.00639536
H       14.94727047      10.26254574      15.40642896       0.01635325       0.00964061      -0.01242460
H       13.29754026      10.26626886      16.04460348       0.03766975       0.00731376       0.02534388
H       10.56693015      14.19557056      12.79293034      -0.00248626      -0.00021546       0.01391841
H       20.60681259      13.53075998      11.00768293      -0.02376625      -0.03308084       0.00731787
H       21.91072587      10.17114024      13.46193825       0.03054214      -0.02010911      -0.00865948
H       12.14810117      10.76037379      10.52751670       0.00398315       0.00940355      -0.03130421
C       18.73704966      12.01666319      21.23566032       0.00626167       0.02347366       0.00746237
C       20.03365861      11.98223510      20.74724419      -0.00647455      -0.00554227       0.00278039
C       20.29505223      11.99743130      19.35905301       0.00143365      -0.04238001       0.01248168
C       19.24656056      12.03585123      18.46689906      -0.01525230      -0.01053587       0.02059248
C       17.90120513      12.09781865      18.92572090      -0.01279947       0.00120893       0.02277432
C       16.83074525      12.14978624      18.00655700      -0.00539315       0.03039301       0.00572379
C       15.55053650      12.21204625      18.50357395      -0.01774267       0.00898652       0.00446189
N       14.35267488      12.26600387      17.81628796      -0.00902509       0.00994657      -0.01521836
C       13.31228264      12.26006847      18.72911467       0.00579321       0.00154472       0.00112460
C       11.93334434      12.27471521      18.47497305       0.02582828      -0.00313058       0.00777553
C       11.07476007      12.14483717      19.56084468       0.01629462       0.01090868      -0.00275159
C       11.56805720      12.01659894      20.88008455       0.00671881       0.00786449       0.00763309
C       12.93076330      12.03851451      21.14104991       0.00294906      -0.02724598       0.00668281
C       13.84093526      12.16858561      20.06465784      -0.00806812      -0.01916963       0.01262926
C       15.27467755      12.17691731      19.91358603      -0.00343859      -0.00135754      -0.01737552
N       16.31756938      12.16236890      20.80135139      -0.00104952       0.01789437      -0.00207899
C       17.64285474      12.09855755      20.34185342       0.00119916      -0.00272126       0.00830106
C       16.05442030      12.25067050      22.26154677      -0.00528053      -0.00506147      -0.02014717
H       18.58512571      11.95857223      22.30525156      -0.00847281       0.01523276      -0.00409680
H       20.86047923      11.92049981      21.44829542      -0.01440949      -0.00114414       0.00854532
H       21.31903519      11.94085523      19.00302655      -0.01252590       0.00294803      -0.00757601
H       19.41680889      11.95113144      17.39948818       0.01845384      -0.00309972       0.02954918
H       17.01261771      12.09671332      16.94188527      -0.02964688       0.00450046      -0.00916136
H       14.32203273      12.61213021      16.85084848       0.00929762       0.05706255       0.01058626
H       11.57021411      12.39331218      17.46064992       0.04870647      -0.00144702       0.01409685
H       10.00054204      12.13058694      19.39623437       0.03248075       0.01928687      -0.00680211
H       10.86828739      11.88918216      21.69908426       0.00018718       0.03237430       0.01845332
H       13.27322673      11.93465835      22.16197433       0.00726542      -0.04421578       0.03146208
H       15.09189140      12.72521134      22.42694859      -0.01871712      -0.00785215      -0.04696994
H       16.06671524      11.25311769      22.70906917      -0.02364747      -0.00392865       0.02434115
H       16.81318788      12.87504856      22.73092626       0.00444338       0.00384226      -0.00477454
89
Lattice="32.01789743580095 0.0 0.0 0.0 24.195481590667228 0.0 0.0 0.0 32.73094516841341" Properties=species:S:1:pos:R:3:forces:R:3 energy=-12383.040922477872 pbc="F F F"
N       20.92945871      10.55416213      13.97204452       0.01581640       0.01005507       0.01364073
C       20.94067452      10.16206616      15.31767497      -0.02872437       0.02640215       0.00264207
N       19.72943202      10.01999213      15.80798025       0.01082177       0.00098936      -0.00159871
C       18.87257968      10.30954051      14.74532414       0.01366336       0.00266418       0.01011729
C       17.44432472      10.30923210      14.66041484       0.00656608       0.00848207      -0.00590531
O       16.60717600      10.09960098      15.56951118       0.00143930       0.00142285       0.00910171
N       17.00010047      10.63448502      13.35508516      -0.00655066      -0.00066026       0.01299487
C       17.81220958      10.92517543      12.27066798      -0.00207025       0.00181109      -0.00447578
N       17.19774785      11.15683765      11.08542552       0.01261435      -0.00619636      -0.00793905
N       19.14839716      10.95968361      12.35747084      -0.00009976      -0.00375895      -0.00480385
C       19.60254071      10.63673413      13.58732222      -0.00417701      -0.00361394      -0.00204300
H       21.86614945      10.00468158      15.85439919       0.01175714      -0.00258036       0.01339185
H       15.96481204      10.67728476      13.24161199       0.01238860      -0.00383094       0.00190262
H       17.76081558      11.63366665      10.38999228      -0.00682165      -0.00109838      -0.00021649
H       16.18527182      11.33825339      11.05962533      -0.00476117       0.01770513       0.00186199
N       20.16537172      13.93766050      11.64983192      -0.01804297       0.00485887       0.00394767
C       18.77145241      14.20458637      11.64162626       0.00277988       0.00148970       0.02592341
O       18.12437051      14.00236798      10.59826203      -0.00717749       0.00703608      -0.04042700
N       18.21665051      14.67063424      12.79987551      -0.00831495      -0.00396876       0.00453234
C       18.97241758      14.88033645      13.89415469      -0.00811337       0.00285238       0.01419352
N       18.35029235      15.34082800      15.00362014       0.02543901       0.01041914      -0.04580935
C       20.38792209      14.61598632      13.90302223       0.01212789      -0.01048290      -0.03742549
C       20.93926773      14.12630766      12.75605018      -0.06662294       0.02646540       0.04636368
H       21.98966217      13.87142962      12.66790998       0.00150770       0.01216800      -0.01459101
H       20.99329024      14.79292624      14.78295630       0.00290432      -0.00942207       0.01302161
H       17.31898830      15.35649973      15.03533636      -0.02191300      -0.02483172      -0.03690716
H       18.87526875      15.46001718      15.85983845      -0.03888845      -0.00813343      -0.00454314
N       11.34849208      14.66079695      13.06968517       0.00532784       0.00069163      -0.03285202
C       11.25150851      14.66961741      14.46467168       0.05155782      -0.00211293       0.01244157
N       12.42906961      14.69837343      15.05007137       0.00474317      -0.02433138      -0.02241745
C       13.35127218      14.72359442      14.00095227      -0.00613414      -0.00959227       0.01075955
C       14.77789831      14.81341018      14.00984478      -0.02067219      -0.00572019       0.02191197
O       15.53929704      14.88484559      15.00735230      -0.01463472       0.00689570      -0.02528372
N       15.31413927      14.79081993      12.70656041       0.02270541      -0.00140331       0.00127681
C       14.57621219      14.71272854      11.53645413      -0.00272948       0.00870164      -0.00782387
N       15.27168739      14.69946484      10.37476937       0.03123736       0.00739295       0.03117463
N       13.23607117      14.67941269      11.52288597       0.00957222       0.00440841      -0.01159362
C       12.69807442      14.69751261      12.75653167      -0.00961593       0.00679080       0.00060370
H       10.29540102      14.65558363      14.97047890      -0.00931099      -0.00304264      -0.00860085
H       16.35717824      14.80315786      12.66752494      -0.00347459      -0.00678103      -0.00644061
H       14.74045579      14.44171972       9.55234254       0.00237467      -0.00080733      -0.00568471
H       16.27472005      14.47676904      10.38483349      -0.00311823       0.00062992       0.01409427
N       12.24981481      11.56268095      11.87135290       0.01447788       0.02912392      -0.03259542
C       13.65131088      11.37744748      11.99743366      -0.02237168       0.00702785       0.06544589
O       14.38324614      11.69973520      11.04642287       0.01707881       0.02866215      -0.00795499
N       14.10882643      10.85672298      13.17448896      -0.01119201      -0.01481675      -0.00047103
C       13.25227165      10.45968621      14.13818715       0.08605997       0.01982526      -0.02211509
N       13.78645977       9.90892961      15.24627572       0.01155197      -0.01546056       0.00928220
C       11.82934056      10.62486444      13.99985711      -0.12596247       0.09203367       0.14293638
C       11.37346656      11.19717488      12.85150033       0.00666019      -0.01647357      -0.02809650
H       10.32197827      11.37672730      12.65582100       0.00159048       0.00047720       0.01155197
H       11.14342399      10.31444565      14.77950490       0.02455095      -0.00650489      -0.02885806
H       14.81632716       9.90984949      15.37257818      -0.01923751      -0.00366742      -0.00325090
H       13.19458434       9.68391409      16.03469352      -0.00547594      -0.00294237      -0.00190107
H       10.58832181      14.72752663      12.40231170       0.00546874       0.01845589      -0.01234078
H       20.54074656      13.50406101      10.81236909      -0.00865845       0.01478950      -0.00981030
H       21.72482754      10.63113161      13.34851569      -0.00406131      -0.00745723      -0.00040675
H       11.94148764      12.02394581      11.02033847       0.01654762      -0.00499154       0.01776375
C       18.87041239      12.66091354      19.93518095       0.01687158      -0.00520340       0.02215468
C       20.15194190      12.72418449      19.41682583      -0.00797865       0.00002108      -0.01271256
C       20.37523409      12.82827982      18.02593714      -0.00597267      -0.00494783       0.01775964
C       19.30277455      12.85771366      17.16423306       0.00074871      -0.00313469      -0.01230222
C       17.96714121      12.80302104      17.65162543       0.01657745      -0.00177303       0.01884310
C       16.86989202      12.81378497      16.76540362      -0.02120800      -0.00410759      -0.00302619
C       15.60727697      12.69460600      17.29452725      -0.00162391       0.00389111       0.01859885
N       14.38896002      12.61541978      16.65890599      -0.00201317       0.01092359      -0.00930225
C       13.38790139      12.45712219      17.59466000      -0.00649821       0.00086595      -0.00133080
C       12.01425258      12.30665057      17.37790340       0.00813549       0.00971414       0.01331317
C       11.20510683      12.09674931      18.48993260      -0.00809486       0.00411479      -0.01087577
C       11.74675704      12.03097539      19.79428787       0.02226576       0.01115910       0.00954908
C       13.11004262      12.18323472      20.01326082      -0.00157197      -0.00623544      -0.00431894
C       13.96511866      12.41044718      18.90837278       0.00736107      -0.00797608       0.02805691
C       15.38209910      12.58091412      18.70641438      -0.01046285       0.00479357      -0.00149895
N       16.44059531      12.65456281      19.56738416       0.00101610      -0.00644730       0.00829849
C       17.75129685      12.71127299      19.07348237      -0.01411947      -0.00432408      -0.00575670
C       16.17358279      12.71535528      21.02781992       0.01933470      -0.00621281       0.00441150
H       18.74675268      12.53621606      21.00274570       0.00594645       0.00941795      -0.00042835
H       20.99657287      12.66962103      20.09586337       0.01497256       0.00156992       0.00339951
H       21.39047994      12.84492319      17.64309599      -0.00903074       0.01159722      -0.01075441
H       19.45377283      12.87752540      16.09085447      -0.00858234       0.01188364       0.01983298
H       17.02091675      12.90591023      15.69808616      -0.00754156       0.00046074       0.03038736
H       14.24163576      12.87922878      15.69410681      -0.01631365       0.02318261      -0.01741408
H       11.61315624      12.37493226      16.37399402      -0.00936139       0.00254642       0.01152934
H       10.13324001      11.97996490      18.35409491       0.02290030       0.00196741       0.01588428
H       11.08555990      11.85802465      20.63682447       0.00395127      -0.00641490       0.00482596
H       13.49473404      12.11423377      21.02275752       0.00099193      -0.02311422       0.00020260
H       15.24742498      13.26418536      21.18614012      -0.00773748      -0.00031676       0.00159923
H       16.09232681      11.70813711      21.44608492       0.00070654      -0.00340260      -0.00022677
H       16.97190598      13.25981139      21.52714110      -0.01205436      -0.00301385      -0.00748602
89
Lattice="32.01789743580095 0.0 0.0 0.0 24.195481590667228 0.0 0.0 0.0 32.73094516841341" Properties=species:S:1:pos:R:3:forces:R:3 energy=-12383.09262251781 pbc="F F F"
N       20.70733026      10.39449646      14.28955772       0.01720017       0.00577727      -0.01292905
C       20.67164380       9.84776062      15.57839406      -0.00611151      -0.00468352       0.00260350
N       19.44890561       9.59032438      15.98142059      -0.01423723       0.01170572      -0.00028334
C       18.63387742       9.95586954      14.91149166      -0.05282023       0.00623441       0.03321917
C       17.21151817       9.95433291      14.77627666      -0.10761559       0.00242969       0.02019756
O       16.34001769       9.65270733      15.62388594       0.04218769      -0.02752983      -0.01865284
N       16.80923121      10.41878931      13.50011399       0.12143167      -0.43119666       0.17499598
C       17.65514822      10.89571189      12.50584400      -0.01128714       0.01591616      -0.01905033
N       17.08101590      11.28985526      11.34165053      -0.01827180      -0.00863274       0.02526880
N       18.98144383      10.96530306      12.66124097      -0.01223794       0.00234382       0.03550180
C       19.39911491      10.46461001      13.84679664      -0.01028441       0.02194025      -0.00803933
H       21.57594509       9.67574197      16.14668172      -0.00224509      -0.00019180      -0.00515866
H       15.78870827      10.47643272      13.33700546      -0.04779373       0.00857720      -0.00079961
H       17.64495562      11.90895801      10.76669376       0.00374147       0.00086543      -0.00869650
H       16.06537344      11.42815779      11.28251670       0.00729988      -0.00792106      -0.00528156
N       20.09898843      14.42976298      11.64277585       0.00634651      -0.04277339      -0.04585254
C       18.69099650      14.51046556      11.76582752      -0.01644118       0.00195610      -0.00598193
O       17.98601490      14.04000263      10.85130929       0.01333528       0.02580462       0.00994246
N       18.19051050      15.10346597      12.88969977       0.00370445      -0.00245540      -0.02355182
C       19.01235483      15.68284231      13.79154868       0.00118888       0.00814885       0.02340270
N       18.44287726      16.27722005      14.85583385      -0.01648232      -0.01400120      -0.01443880
C       20.44572112      15.64916084      13.63846571       0.00865382      -0.02301960      -0.03975080
C       20.94574746      14.99963733      12.54997862       0.01521682      -0.03494181      -0.01341550
H       22.00777318      14.90572657      12.35131847       0.00450354       0.00526716       0.00179823
H       21.10253691      16.10924832      14.36549684       0.01244414       0.00998617       0.00303904
H       17.41397190      16.23374849      15.00883164       0.00457862      -0.02163326       0.00601844
H       19.02089349      16.70719961      15.56530878       0.02125171      -0.00797042      -0.00467529
N       11.36941042      15.31031114      13.84504385      -0.00128349       0.01172629      -0.00495606
C       11.36027489      15.89910686      15.11666766       0.01282261       0.00140228       0.01480647
N       12.56972656      16.12872910      15.57410781      -0.02454992      -0.02050249      -0.01366284
C       13.42407181      15.70898300      14.55575489      -0.01100946       0.00052553      -0.01815199
C       14.85016421      15.70677142      14.46949379       0.02694105       0.01878859       0.00714047
O       15.68886349      16.02327306      15.34389267      -0.00944932       0.01932647      -0.02127948
N       15.29485934      15.23867742      13.20572426      -0.00308481      -0.00880346      -0.00190416
C       14.48076776      14.80501406      12.17015589      -0.01515357       0.00121408      -0.00587343
N       15.08927340      14.49880409      10.99557637       0.02321912       0.00090657       0.02346955
N       13.15149292      14.71445648      12.28855281       0.00023346       0.01439201      -0.01499930
C       12.69620323      15.20258252      13.46536685      -0.00332547       0.00998411       0.00254231
H       10.43498849      16.12469599      15.62925011      -0.00373273      -0.02332402       0.01660213
H       16.32453815      15.23556534      13.05966350      -0.00423666      -0.01285346       0.00719189
H       14.53365660      13.93875481      10.36026181      -0.01819981      -0.02434835      -0.01010649
H       16.10502929      14.35494561      10.95972020       0.00186096       0.00106649      -0.00068391
N       12.03972645      11.18100284      11.71302653       0.00941692      -0.01491960       0.02796846
C       13.43735661      11.24126529      11.94252524      -0.00822342      -0.02080485      -0.00128967
O       14.17486464      11.70124028      11.05795422       0.01650494       0.01674920       0.00102587
N       13.89794063      10.77860251      13.14903922       0.00224869      -0.00639382       0.00256699
C       13.06975534      10.13364517      14.00288116      -0.00634394      -0.01498850       0.01300773
N       13.60841754       9.65986888      15.13849212      -0.36243970       0.52913564       0.04545659
C       11.65997166       9.99994419      13.72964152       0.01670909      -0.00273205       0.01189650
C       11.18754197      10.55385682      12.57919936      -0.02514333       0.00244820      -0.01405108
H       10.14130893      10.52071434      12.29438048       0.00337997       0.00126241      -0.00039955
H       10.99800115       9.48907526      14.41669223      -0.01492988      -0.00647764       0.01127686
H       14.63684810       9.68088649      15.30714540       0.02460854      -0.00157352      -0.00028179
H       13.02662368       9.14617014      15.78657465      -0.01239220      -0.00489075       0.03014464
H       10.57460941      15.14334967      13.23863137      -0.00861782      -0.00079293       0.00157300
H       20.44566114      13.94412528      10.82027398       0.00502394       0.02935480       0.02556499
H       21.52809259      10.61827587      13.73769276      -0.02287254      -0.01654505       0.00066489
H       11.71240806      11.58307076      10.83993563       0.00498948      -0.01208933      -0.00165733
C       19.01541212      12.98588146      18.76588274       0.00044069       0.00495092      -0.02933320
C       20.30844340      13.03796826      18.27654246       0.01658002       0.01493451       0.03257382
C       20.55825843      13.09941568      16.88779924       0.01789745       0.00672035      -0.02469391
C       19.50512719      13.11444678      16.00206408      -0.00554536      -0.00351830       0.00426495
C       18.16171300      13.04560710      16.45851967      -0.00017072       0.00126293      -0.01109123
C       17.08290435      13.00226510      15.54706913       0.00872632      -0.00261224       0.01814839
C       15.81319031      12.88073084      16.05212836       0.00097188       0.00045766      -0.01808360
N       14.60499690      12.78086910      15.39384674      -0.00414102      -0.00054250      -0.04337657
C       13.57868150      12.74559763      16.32491327      -0.01853971       0.00564460      -0.02466151
C       12.20417829      12.65020697      16.09664350      -0.00158637       0.01580971       0.02229815
C       11.35902108      12.69187744      17.20112127       0.03591111       0.00592948      -0.05281663
C       11.86652282      12.85133327      18.50862991       0.02771649       0.01479516      -0.00260761
C       13.23215878      12.94361584      18.73921970      -0.01115962      -0.00968123      -0.01598301
C       14.12459392      12.85553097      17.64514473       0.00846767       0.00074356       0.00645861
C       15.55445542      12.88939226      17.46666956       0.00382015      -0.00242609      -0.00111843
N       16.60002020      12.88945623      18.34054897       0.00011107      -0.00436316       0.02724238
C       17.91827164      12.97488037      17.87283705      -0.00694661       0.00057284      -0.03085941
C       16.34928052      12.72149398      19.79646658       0.01336614       0.00280045      -0.00229600
H       18.86310137      12.95479642      19.83601429       0.00497046       0.00514426       0.00499360
H       21.13834450      13.02496980      18.97654386      -0.00375227       0.02265193      -0.01463523
H       21.58023314      13.12450109      16.52335354      -0.00256339       0.01467946      -0.00121048
H       19.67983377      13.14340799      14.93336668       0.00382220       0.00386797      -0.01221326
H       17.26715612      13.06330884      14.48092379       0.00352755      -0.01256447      -0.01487692
H       14.50441241      12.51112054      14.41661631      -0.00302105       0.00658151       0.01140079
H       11.81477169      12.56710955      15.08931705       0.00521214       0.02899999      -0.01912232
H       10.28532461      12.62566241      17.05397204      -0.00266623       0.00435648      -0.00598296
H       11.17745787      12.92009551      19.34393054       0.00327199       0.00530881      -0.00223995
H       13.58385746      13.11137011      19.74880934       0.00445675      -0.00840339       0.00831906
H       15.35243270      12.31901900      19.93808975       0.01226931      -0.01237523      -0.00126344
H       17.05833654      12.00103259      20.20392403       0.00882506       0.01020677      -0.00266418
H       16.44403949      13.68025767      20.31408059      -0.00229600      -0.00770148      -0.00671778
89
Lattice="32.01789743580095 0.0 0.0 0.0 24.195481590667228 0.0 0.0 0.0 32.73094516841341" Properties=species:S:1:pos:R:3:forces:R:3 energy=-12383.269825801977 pbc="F F F"
N       20.58917274       9.91386816      14.22850651      -0.04574970      -0.08440984      -0.00679286
C       20.58266009       9.74645994      15.61681589      -0.00374713       0.00388442       0.00669155
N       19.37559600       9.83987920      16.13015558       0.00510570      -0.00073791       0.00503422
C       18.53895173      10.06119471      15.03911100      -0.00426649       0.00384791      -0.00869599
C       17.12280558      10.24718577      14.96405937       0.05557594      -0.00083664      -0.03090569
O       16.28146933      10.30221106      15.89052643      -0.04490586       0.00165322       0.02007980
N       16.69351363      10.41692040      13.62441883       0.00274491      -0.00794111       0.00067826
C       17.51955968      10.52447077      12.52206908      -0.01484144      -0.00435699       0.00163574
N       16.91477904      10.79683193      11.33360325       0.03465796      -0.00638096      -0.03414065