89
Lattice="31.82154017 0.0 0.0 0.0 23.922658130000002 0.0 0.0 0.0 36.62373107" Properties=species:S:1:pos:R:3:forces:R:3 energy=-12382.239288860186 free_energy=-12382.239288860186 pbc="F F F"
N       20.87999011      10.08297122      14.07891299       0.00865999      -0.01856337      -0.00644884
C       20.85798738      10.19175989      15.47009684       0.01202916       0.01089736      -0.00315577
N       19.63436542      10.29380584      15.94887768       0.00960821      -0.01067162      -0.00892019
C       18.80641952      10.23634844      14.82747738       0.01223022       0.00536178      -0.00746803
C       17.37876820      10.30284980      14.71106816       0.02001398       0.00792106       0.01172217
O       16.54089338      10.40742259      15.62922842      -0.01056312      -0.00217155       0.00398264
N       16.96369870      10.25359002      13.35443488       0.00470820      -0.01169646       0.00476323
C       17.80842503      10.18490164      12.25920997      -0.01192118       0.01325095       0.00268886
N       17.23620612      10.17548892      11.03339908      -0.00800179      -0.05938066      -0.01474116
N       19.14456972      10.12071808      12.36953916      -0.02920105      -0.00923540       0.00284210
C       19.56406258      10.12854579      13.65023767       0.00607243      -0.00585903      -0.01059655
H       21.76715457      10.18027883      16.05580815       0.01403720       0.00085566      -0.00088343
H       15.93302789      10.31253464      13.19552094       0.02445479       0.00407057      -0.01913929
H       17.85688146      10.29135637      10.24544124       0.03792943      -0.00593256      -0.05112690
H       16.22224371      10.30928598      10.89618898       0.04291789       0.00009050       0.01281798
N       19.95673290      13.46793717      11.80871414       0.00194684       0.00115545       0.00521677
C       18.53920359      13.47598058      11.85670901       0.00173292      -0.00068906      -0.00245026
O       17.91061395      13.46884957      10.78148418       0.00368182       0.03377247       0.00221629
N       17.95412983      13.47858304      13.09116159      -0.00744283       0.01258709      -0.00574796
C       18.69990985      13.42550272      14.21239525      -0.01025356      -0.00590634       0.00000720
N       18.05885577      13.41764280      15.39980791      -0.00094154      -0.01240712      -0.01235467
C       20.13935623      13.38709107      14.16251264       0.00048337       0.00439453       0.00813394
C       20.72546499      13.40597347      12.93720428       0.00373478      -0.00068854       0.00670698
H       21.79967865      13.36873480      12.79292523       0.00338460       0.00788300      -0.00333626
H       20.72941692      13.31785231      15.06649978       0.01229604       0.00324473       0.00799253
H       17.02465165      13.34553308      15.42538236       0.00168767      -0.00806812       0.01525076
H       18.56762105      13.08808679      16.21093857      -0.00980876       0.00328176       0.00255876
N       11.08369264      13.80076936      13.48342626       0.00466964       0.00391116      -0.00378106
C       10.94833649      13.64537197      14.86424458      -0.00747163      -0.00165579      -0.00466912
N       12.10907165      13.51481559      15.47422498      -0.00861063       0.01798795       0.00119659
C       13.05841304      13.60061105      14.45678251      -0.00122899      -0.00880654      -0.00243175
C       14.48931227      13.52558711      14.50173839      -0.00330438       0.00598296      -0.01021911
O       15.22287505      13.37963476      15.50091619       0.02499370       0.01078629      -0.03219484
N       15.05522213      13.62547746      13.20578593      -0.00283490      -0.01825586      -0.00481105
C       14.34330685      13.73043062      12.02380129       0.00416467      -0.01221788       0.01421203
N       15.05296704      13.77147482      10.87363598      -0.00344476       0.01474065       0.00565180
N       13.00471766      13.80165865      11.98118739       0.01943240       0.00943184       0.00278091
C       12.43984619      13.75604634      13.20463657       0.00749631      -0.00147376      -0.00375535
H        9.97819940      13.64659516      15.34270703      -0.00532167      -0.00346225       0.00296860
H       16.09623379      13.56236948      13.15902541      -0.01538651      -0.00585029      -0.01377494
H       14.52103993      13.71504047      10.01512626       0.02542513       0.00328278       0.00650643
H       16.07286241      13.62251080      10.84507523      -0.03176907      -0.00940561      -0.00586212
N       12.25421851      10.41265783      11.42399590       0.00876438      -0.00576493       0.00042269
C       13.65580818      10.39815639      11.64015704       0.00766549       0.00285084       0.00440687
O       14.40907244      10.40668163      10.64797929       0.00564409      -0.00392659      -0.01985560
N       14.08958751      10.38769767      12.93528101       0.01522350      -0.00892996       0.00037024
C       13.21588102      10.42573323      13.96198841      -0.00908114      -0.00203323      -0.01799772
N       13.71463731      10.42627626      15.21568381       0.00269657       0.00886516       0.00593256
C       11.79211155      10.45435444      13.74157485       0.00104592       0.00096056       0.00603901
C       11.35642978      10.45114004      12.45455349      -0.00194375      -0.00205688      -0.00111534
H       10.30668306      10.47886169      12.18389052      -0.00444749       0.00338666      -0.00150410
H       11.09779947      10.50090712      14.56986872      -0.00951463      -0.00164294       0.00000206
H       14.73789972      10.49623795      15.36141871      -0.00556078       0.00037538      -0.00904051
H       13.11579574      10.75146840      15.96474234       0.00134829      -0.00135240      -0.00208619
H       10.34619582      13.93163525      12.80086661       0.01454885       0.00443670      -0.00130201
H       20.37095406      13.44535668      10.88282096      -0.00649924      -0.00975065      -0.00234279
H       21.68936899       9.98645496      13.47744636       0.00436265      -0.01101306      -0.00108758
H       11.95339463      10.44302462      10.45532760       0.00286369       0.00862194       0.00805989
C       19.31651045      11.82014775      25.05226028       0.01799772      -0.00555358      -0.01036823
C       20.59676730      11.71127398      24.53729646       0.00610380       0.00095748       0.01177000
C       20.82800648      11.69006244      23.14530084       0.00362577      -0.01382791       0.00175041
C       19.76034883      11.75366601      22.27706884      -0.00928117       0.01195100      -0.00668281
C       18.42481059      11.85488624      22.76079628       0.00051782       0.01220400      -0.01250739
C       17.32378749      11.88585183      21.87105200      -0.00798790       0.00009873      -0.00589554
C       16.05485616      11.95631193      22.40007609      -0.00706025      -0.01125526      -0.00207334
N       14.82222873      11.97551370      21.77118722      -0.00812520       0.01239426      -0.06621157
C       13.81453201      12.07323000      22.72501594       0.01437452       0.05217746      -0.00881014
C       12.43150051      12.12125300      22.52879980       0.01020008      -0.04188842       0.00277473
C       11.62151637      12.19375418      23.65936684       0.01334608      -0.00318508       0.00839620
C       12.17359044      12.21033824      24.95849874       0.00892636      -0.01850217       0.01895263
C       13.54646444      12.17413209      25.15700694       0.01734981       0.01381248       0.00606935
C       14.40723134      12.12431100      24.03287673       0.00022574      -0.01193455       0.00100890
C       15.82846524      12.04946217      23.81611530       0.00265749       0.02172582       0.00271714
N       16.89672044      12.06804041      24.67085096      -0.00473443       0.00733639       0.00748962
C       18.20534671      11.91756332      24.18423364       0.00340517      -0.00494269      -0.00015170
C       16.63627995      12.26388369      26.12117228       0.01044176       0.02148928       0.02256606
H       19.19363791      11.80412534      26.12616808      -0.03194030       0.00960410       0.01321496
H       21.43502757      11.63229942      25.21970921       0.03258205      -0.00254436       0.04563143
H       21.84206967      11.60734636      22.76650261      -0.02656361       0.01109637      -0.00267960
H       19.92460086      11.72400285      21.20423732      -0.04471920      -0.02045930      -0.01718937
H       17.49151604      11.84426880      20.79884267      -0.01380683      -0.01495559      -0.01230479
H       14.67888704      11.87949704      20.77205944       0.00615214       0.04258621       0.02655333
H       12.00077188      12.09338007      21.53289911       0.03971892       0.00680982      -0.01490212
H       10.54310522      12.23032346      23.54040555       0.00725565      -0.00462130      -0.00855509
H       11.51194952      12.23930862      25.81721239      -0.01037646       0.02445634       0.01083257
H       13.93209495      12.17197771      26.16749602       0.00937939      -0.00759555       0.00744797
H       16.33437475      11.32031904      26.58376288      -0.02333482      -0.00322622      -0.00822907
H       17.52230169      12.64489241      26.61757859       0.05986403       0.00994606      -0.01570327
H       15.85450422      13.01192489      26.23766488      -0.04699000      -0.00592794      -0.02422648
89
Lattice="31.82154017 0.0 0.0 0.0 23.922658130000002 0.0 0.0 0.0 36.62373107" Properties=species:S:1:pos:R:3:forces:R:3 energy=-12382.348328989341 pbc="F F F"
N       20.93278626      10.05902711      14.06877259      -0.02048090       0.02239328      -0.00378724
C       20.91821553      10.19569607      15.45724018       0.00606575       0.01031732      -0.00198026
N       19.69823424      10.33031167      15.93862719       0.00135960      -0.02289053       0.01001805
C       18.86471922      10.26721709      14.82109555       0.00153803      -0.01301235       0.00502754
C       17.43723905      10.34000680      14.71097854       0.00458428       0.01986023       0.00394921
O       16.59816128      10.46119474      15.62874334       0.00244666      -0.01670292       0.00046383
N       17.01987303      10.27615181      13.35668741       0.00819411       0.01993376       0.03255582
C       17.85815352      10.18417105      12.26004657      -0.00314960       0.00348950       0.02229609
N       17.27686414      10.15230413      11.03854968       0.02772215       0.06136041      -0.00331055
N       19.19215763      10.10963124      12.36469423       0.01277478      -0.02206624      -0.00048182
C       19.61706171      10.12738140      13.64358484       0.00076002       0.00935625      -0.00086440
H       21.83236354      10.18223257      16.03468925       0.00473597      -0.00518489       0.02697756
H       15.99213452      10.34505597      13.19289073      -0.01282775      -0.02996981       0.01904725
H       17.89903926      10.28515710      10.25126649      -0.01842453      -0.02317490       0.00456268
H       16.27577627      10.35898009      10.90675764      -0.00082224      -0.03346497       0.00177766
N       20.00124213      13.44753726      11.78542330       0.00530470       0.00965398       0.01206310
C       18.58401894      13.45799058      11.83755216      -0.00011673      -0.00035687      -0.00597062
O       17.95098995      13.43515126      10.76639765       0.01650340      -0.00292643       0.00504553
N       18.00106750      13.47791140      13.07190039      -0.00660979      -0.00160591       0.00522654
C       18.74855598      13.43647070      14.19074764      -0.00401966      -0.00664990      -0.00020106
N       18.10557655      13.42697404      15.37832111       0.00268166      -0.00286987       0.00085463
C       20.18945880      13.41337570      14.14045907      -0.00206460       0.00843888      -0.00491029
C       20.77304077      13.41489965      12.91221119       0.00214327       0.01448303      -0.01057598
H       21.84739028      13.39090386      12.76826544       0.01019391      -0.00679748      -0.01568836
H       20.78203605      13.37574108      15.04521489       0.00456268      -0.01024379      -0.00874844
H       17.07383064      13.32524132      15.39863662       0.00107421       0.01212944      -0.00817971
H       18.61820091      13.08716821      16.18274694      -0.00755956       0.00765160       0.01053998
N       11.13135940      13.78861790      13.43738559      -0.00963804      -0.01671011      -0.02542770
C       10.98939083      13.62337887      14.81538027       0.00262304       0.01764857       0.00493703
N       12.14755858      13.47756611      15.42594160       0.00316091      -0.04538306       0.06095932
C       13.10117657      13.55699950      14.41034220       0.00248471       0.01493708       0.00565283
C       14.53106428      13.48017165      14.45369919       0.00840699       0.01700991       0.01073847
O       15.26686783      13.33071132      15.45229284       0.00159820      -0.01866210       0.01596964
N       15.09677177      13.58600233      13.15912875       0.01080943       0.00819051       0.00595416
C       14.38765863      13.71973436      11.97822149       0.01105112       0.00192113      -0.00143828
N       15.10113630      13.79534223      10.83084439      -0.00521574      -0.00809435       0.00704739
N       13.05081614      13.79303474      11.93815623       0.00743512       0.00379083      -0.03255531
C       12.48623149      13.73129465      13.16069565       0.00431740       0.01094673      -0.02125737
H       10.01733370      13.63069077      15.29014767       0.00320154      -0.00153958       0.00724845
H       16.13727139      13.53298115      13.11515771       0.01100124      -0.00566671       0.00199672
H       14.57462414      13.72413032       9.97016465      -0.00275725       0.00560243       0.00895978
H       16.11459043      13.61217855      10.80529936      -0.01352452       0.00411274       0.00548159
N       12.31139346      10.44640954      11.41142769      -0.00748191      -0.01297842       0.00542349
C       13.71318406      10.44673559      11.62983857      -0.01136890       0.01568013       0.00397904
O       14.46872533      10.51849511      10.64266159       0.00451280       0.01542971       0.02599026
N       14.14470615      10.38597240      12.92476334      -0.00575002       0.01443315       0.00661596
C       13.26800142      10.39200555      13.94641479       0.00359697       0.02001501       0.00659642
N       13.76496561      10.37090686      15.20226012       0.00102176       0.01315685       0.00288889
C       11.84376190      10.41096416      13.72663063       0.00646478       0.01431590       0.01187336
C       11.41000098      10.44240335      12.43920731       0.00196124       0.00199312       0.00948583
H       10.36039039      10.46964298      12.16652627       0.00959741       0.00570322       0.00091788
H       11.14750221      10.43530373      14.55444766      -0.00110300      -0.01990445      -0.00149175
H       14.78482241      10.48113158      15.34577739      -0.00180234      -0.01130308       0.01117402
H       13.15649648      10.68309831      15.94868561       0.00677589      -0.00423358       0.01275010
H       10.40163458      13.94826335      12.75419821      -0.03488267       0.00256082      -0.02542770
H       20.41199128      13.40411909      10.85864872      -0.00161517       0.00011107      -0.00049674
H       21.73626165       9.91902676      13.46699969      -0.00769274       0.01106449       0.01375952
H       12.01355351      10.52530640      10.44465192      -0.00093845      -0.00160540       0.00198592
C       19.17708725      11.83648569      24.03283952      -0.01028647      -0.00694404       0.02246167
C       20.45936627      11.72429739      23.52875764      -0.01093439       0.01430202      -0.01208059
C       20.68828893      11.67257434      22.13693209       0.02811193      -0.01549553      -0.02125531
C       19.62385797      11.72687350      21.26448487       0.01784397       0.00162802      -0.02836081
C       18.28747474      11.84636631      21.73746693       0.02228992      -0.02106608       0.00127064
C       17.19763750      11.88968894      20.83303234      -0.00584103      -0.02965768       0.00434414
C       15.92625258      11.97505977      21.34973991       0.00027665       0.00476220       0.01461569
N       14.69782966      12.01054926      20.71463961      -0.00318354      -0.00653317      -0.00612591
C       13.68682107      12.07570635      21.66709031       0.01374255       0.00271920       0.01453650
C       12.30393462      12.11177137      21.47019415       0.01656510       0.00899321      -0.00538389
C       11.49224167      12.15525264      22.60089125       0.00444544      -0.00294751      -0.01373535
C       12.03990606      12.15783746      23.90274255      -0.01009415       0.00632234      -0.00291615
C       13.41194775      12.12106737      24.10369674      -0.01271256       0.00330850      -0.00001851
C       14.27274636      12.08563135      22.97936404       0.02056934       0.00026380       0.00953931
C       15.69210575      12.02928812      22.76705284       0.02695648       0.01123984       0.02987828
N       16.74653219      12.02602793      23.63464965       0.03519532      -0.01936709       0.02332916
C       18.06279103      11.90707230      23.16049594       0.03414168       0.01089634       0.01751384
C       16.44937532      12.15337467      25.08461505       0.00282204       0.00475500       0.01734363
H       19.05005807      11.84946053      25.10493587      -0.00689467       0.00135394       0.04604640
H       21.29324941      11.67244754      24.22157657       0.01374255      -0.01260458      -0.02614298
H       21.70087105      11.57854950      21.76263421       0.03499477      -0.00037898      -0.04049745
H       19.78319536      11.66763190      20.19288003       0.01579326       0.00427574      -0.03821739
H       17.37321601      11.83378131      19.76257413       0.00523374       0.00769788      -0.01299538
H       14.56760022      12.03772164      19.70975976      -0.01493965      -0.00696563      -0.01750253
H       11.87943754      12.10627412      20.47161010       0.01259172       0.00482288      -0.01381608
H       10.41394570      12.18443194      22.47871457       0.00519723       0.00144187      -0.00119094
H       11.37452989      12.19084658      24.75867348      -0.00082224      -0.01262052       0.00882197
H       13.79717510      12.11654658      25.11407328      -0.01160750      -0.01186924      -0.00116934
H       15.99243785      11.22846952      25.44702951       0.00541937       0.01868884       0.01649826
H       17.35702667      12.35243495      25.64246032      -0.02494330       0.01042377       0.01623857
H       15.77009182      12.99458000      25.22769664      -0.00100633      -0.00666841       0.00766857
89
Lattice="31.82154017 0.0 0.0 0.0 23.922658130000002 0.0 0.0 0.0 36.62373107" Properties=species:S:1:pos:R:3:forces:R:3 energy=-12382.560205874433 pbc="F F F"
N       20.97562282      10.07579329      14.04369455      -0.01325404       0.01759303       0.02074932
C       20.96823331      10.19691943      15.43514084      -0.00279428      -0.02276301      -0.00528259
N       19.75097193      10.33796277      15.92392033       0.01020779       0.02496901       0.00202346
C       18.91276964      10.29811780      14.80743198      -0.01310800      -0.00999954       0.00433231
C       17.48546030      10.36286053      14.70650306       0.00099450      -0.05054584      -0.04473566
O       16.64777713      10.45484307      15.63156860      -0.02294298       0.00900658      -0.04420652
N       17.06279584      10.30782816      13.35198446      -0.00390191       0.00379701      -0.00682114
C       17.89657541      10.22474373      12.24771498       0.01515511       0.01420637      -0.00582098
N       17.31757661      10.21521536      11.02712038      -0.00915776       0.01254956       0.00201523
N       19.23068646      10.14546512      12.34653620       0.01377443       0.00954908       0.03586124
C       19.65870717      10.15829690      13.62450133      -0.01375335      -0.01576601       0.03565143
H       21.88530873      10.15902026      16.00798422      -0.01661653       0.00919272       0.01974247
H       16.03455683      10.35468905      13.18762216      -0.01339648      -0.01070865       0.01697442
H       17.93614177      10.31472847      10.23347823       0.01696928      -0.00271663       0.01042788
H       16.31147956      10.38132538      10.88881773      -0.04301713       0.00556490       0.00776987
N       20.06702684      13.43408331      11.78856035      -0.00228468      -0.00848927       0.00417547
C       18.64775747      13.44058178      11.81757734      -0.00677949       0.01798024      -0.00369725
O       18.02754435      13.39559671      10.73930032       0.00562969      -0.00498794       0.02015694
N       18.04897079      13.48263641      13.04666722       0.00062426      -0.01009467       0.00607397
C       18.78305143      13.47525233      14.17456267       0.00202963      -0.01231404       0.00181983
N       18.12745482      13.49024581      15.35656711       0.00218852       0.00862811      -0.01134936
C       20.22230083      13.45755953      14.14589993       0.00465987      -0.00435802      -0.00243432
C       20.82299953      13.42669387      12.92725384      -0.00099810      -0.00802390      -0.00740169
H       21.89909699      13.38580984      12.79870880      -0.00110300       0.01725930      -0.01428145
H       20.80047547      13.43608129      15.06034788       0.01950748      -0.00275108      -0.01038931
H       17.09768565      13.36608680      15.37313110       0.01239220      -0.00827998       0.02939337
H       18.64202154      13.19833283      16.17748052      -0.00430557       0.00754979       0.01313885
N       11.18376442      13.78838414      13.43051346      -0.04776339      -0.02779826      -0.04023211
C       11.03180573      13.60400170      14.80541413      -0.01769896       0.00565283      -0.00825478
N       12.18305815      13.42525988      15.42060833      -0.00610431      -0.00259013      -0.00660876
C       13.14227838      13.50404246      14.40774355       0.01512426       0.00326993       0.00541937
C       14.56878461      13.41922345      14.45874279       0.01561277       0.05656890      -0.01582617
O       15.29812775      13.26443922      15.46424781       0.01603083       0.03302171      -0.01314914
N       15.14431416      13.53552637      13.16989815       0.01294448       0.00398624       0.00236593
C       14.44614859      13.69599761      11.98491133      -0.00335015       0.01125166       0.00758475
N       15.17310378      13.78541561      10.84670908      -0.01070762       0.00789072       0.01958152
N       13.10932403      13.78373969      11.93766897      -0.00431020      -0.00878752      -0.01105780
C       12.53740284      13.70939816      13.15679822       0.02586273       0.00748037       0.01299076
H       10.05634235      13.62362894      15.27155914      -0.00743460      -0.00686022       0.02859890
H       16.18515553      13.49041507      13.12613798       0.01612339      -0.00154626      -0.00318971
H       14.65531326      13.75471568       9.97776562       0.00647404      -0.00264824       0.03065167
H       16.18471573      13.59186313      10.82291709      -0.01662938       0.00300253      -0.00854275
N       12.35361062      10.44965814      11.37508033      -0.00075539       0.01149078      -0.00771125
C       13.75554419      10.44629598      11.59176664      -0.00309201       0.00010182       0.00335375
O       14.51062348      10.53024217      10.60572549      -0.00270531      -0.01370707      -0.00623390
N       14.18746831      10.36313885      12.88625357       0.00752202       0.00578138      -0.00028231
C       13.31127977      10.34313674      13.90764835       0.00298299       0.01551352      -0.00532887
N       13.81020587      10.27652410      15.16237575       0.00109632       0.02538502      -0.00634188
C       11.88809983      10.38180402      13.68954064       0.00493652       0.00001388       0.00350647
C       11.45372102      10.43792300      12.40342137      -0.00561118       0.00532013      -0.01049010
H       10.40462112      10.48239208      12.13307609      -0.00609711      -0.00708699      -0.00460947
H       11.19020855      10.38984779      14.51661771       0.00845225      -0.00384637      -0.00096314
H       14.82778201      10.39589540      15.31357326       0.00007508      -0.01283135       0.02693848
H       13.19333716      10.52807112      15.92396211       0.00814526       0.00006273       0.00393225
H       10.45960156      13.97139905      12.74489053       0.00131178      -0.00468764       0.02725267
H       20.49269567      13.35456594      10.87098648      -0.00569037       0.01227342      -0.00912485
H       21.77300589       9.90241712      13.44160073      -0.02363718       0.03170993       0.01934704
H       12.05428171      10.54492859      10.41037798       0.00053530       0.00108449      -0.00942258
C       19.04973109      11.92801029      23.04335668       0.00186302       0.00533555      -0.00020260
C       20.33472653      11.80840249      22.54277649      -0.00622258      -0.00630383      -0.01523070
C       20.56762001      11.66643890      21.15691268       0.00748705      -0.00803470      -0.02321501
C       19.50499728      11.67918697      20.28081342       0.02409844      -0.00187433      -0.04376635
C       18.17063093      11.82682220      20.74979689       0.01039908      -0.01583594      -0.04435976
C       17.08776903      11.87590582      19.84214712      -0.02127382      -0.02568892      -0.01658722
C       15.81965488      12.00632270      20.35498720      -0.02367318      -0.03233368      -0.01482807
N       14.60534446      12.05709680      19.69806481      -0.04383783       0.03344388       0.00098885
C       13.58143325      12.10915048      20.63506641      -0.03109852      -0.01571047       0.00427060
C       12.20196831      12.14069528      20.41038771       0.00093434      -0.00869136      -0.07221767
C       11.36090581      12.13151843      21.51751882      -0.07226754       0.00144342       0.03292401
C       11.88174402      12.12174213      22.83227603       0.03421727      -0.01243900      -0.01013889
C       13.25010220      12.11438095      23.06259101      -0.01098118       0.01862147      -0.01276707
C       14.13917895      12.09164742      21.95858967       0.01083977       0.00067980      -0.01589045
C       15.56685064      12.03402441      21.77280941       0.00740941       0.01828003      -0.00500080
N       16.61911618      11.98273364      22.64317018       0.01712715      -0.02373026      -0.00694764
C       17.93774760      11.91855822      22.16786103       0.02136484      -0.00421558      -0.02472270
C       16.35863461      12.00875770      24.10634853      -0.01026127      -0.03066812       0.01650083
H       18.92294066      12.03015658      24.11156309      -0.01374769       0.04014829       0.01834945
H       21.17358514      11.81690195      23.23223812      -0.01695488       0.00251351      -0.00643341
H       21.58103140      11.54775547      20.78921965       0.01136942       0.00630229      -0.01409993
H       19.65771148      11.56143001      19.21244082       0.03413448       0.00101919      -0.04288652
H       17.25663874      11.78874635      18.77171372       0.01313834      -0.00729833      -0.01300310
H       14.50025933      12.16096731      18.69270903      -0.01642267      -0.00449429      -0.00558906
H       11.80971558      12.16460698      19.39981241      -0.02225547       0.00399755      -0.03930343
H       10.28338993      12.14400507      21.37386866       0.06064719      -0.00174064      -0.01191398
H       11.20098709      12.12164880      23.67626236      -0.02005666       0.02119258       0.00680777
H       13.60864199      12.13408022      24.08376585      -0.00827535       0.00771022      -0.02520555
H       15.42184224      11.49998606      24.30878883      -0.01690500      -0.02335950      -0.01046490
H       17.14327731      11.47012429      24.63089382      -0.01301647      -0.00261790       0.00743409
H       16.31222729      13.04293223      24.46093430      -0.00868107      -0.02280363      -0.00073225
89
Lattice="31.82154017 0.0 0.0 0.0 23.922658130000002 0.0 0.0 0.0 36.62373107" Properties=species:S:1:pos:R:3:forces:R:3 energy=-12383.135313737474 pbc="F F F"
N       20.99913171      10.07820833      14.03806049       0.01873820      -0.00193038       0.00344734
C       20.99522604      10.22424395      15.42612152       0.00754413      -0.03313381      -0.01542148
N       19.78286108      10.40637805      15.91152530       0.00590685      -0.00048697      -0.02336105
C       18.94213970      10.35714004      14.79657735      -0.00352344      -0.00548571      -0.00665196
C       17.51798425      10.42545154      14.69530038       0.01620206      -0.03717558      -0.02607304
O       16.68657572      10.53767847      15.62729295      -0.01471031      -0.01352966      -0.02384236
N       17.08943918      10.34913122      13.34685874      -0.01575932      -0.00407520       0.01204099
C       17.91983109      10.23537574      12.24027398       0.00669721       0.00194170       0.03106407
N       17.33566562      10.21319235      11.02239981       0.01726907       0.00460279       0.03463019