89
Lattice="35.01488724496668 0.0 0.0 0.0 25.195922956900066 0.0 0.0 0.0 31.533992591404534" Properties=species:S:1:pos:R:3:forces:R:3 energy=-12383.421501775376 free_energy=-12383.421501775376 pbc="F F F"
N       16.62567012      10.44165056      19.12607131      -0.00225177      -0.04429703      -0.00634600
C       15.54545532      10.78954659      18.31138081      -0.00003702       0.00411531      -0.02252132
N       15.92934311      11.20686669      17.12515408      -0.00029568       0.01643295      -0.00915364
C       17.31958469      11.12888422      17.14169225       0.00975837       0.01495457       0.00069728
C       18.29032912      11.46240211      16.14660977       0.00264978      -0.04117879       0.05502058
O       18.10374826      11.92919821      14.99538440      -0.03679197      -0.00076156      -0.02281289
N       19.60373598      11.21286211      16.60161384       0.01538600       0.05542322       0.02852588
C       19.94491277      10.70738350      17.84411296       0.00937013       0.01371529       0.02125274
N       21.26380812      10.47297593      18.06428106      -0.01422077       0.01794990       0.02878967
N       19.04191856      10.42884699      18.78968087       0.00496017      -0.01924779       0.00058261
C       17.77527708      10.64489622      18.38041088      -0.02333842      -0.00060061      -0.01845795
H       14.52251948      10.72663211      18.65815326       0.01563128      -0.01833505       0.00896030
H       20.37740226      11.41352485      15.92932734      -0.01772416       0.00843630      -0.00551553
H       21.51549741      10.24344573      19.01682703      -0.00272023      -0.00173601       0.03252086
H       21.98310094      10.92454591      17.48478855       0.02285454      -0.03410826       0.01135451
N       18.70767651      13.45347717      20.13333745       0.01338465      -0.00672703       0.00084641
C       17.34450455      13.67844506      20.01823264       0.00759041      -0.03864214       0.01134525
N       17.03078948      14.20715718      18.85110455      -0.01476585      -0.04801895      -0.01003142
C       18.23179365      14.33294404      18.15945628       0.00011107      -0.01790568       0.00343294
C       18.49635967      14.73622221      16.81411970      -0.03266998      -0.01959078      -0.06128893
O       17.67562244      15.06370241      15.92483415      -0.00434825      -0.05024296       0.01526053
N       19.87728167      14.68367927      16.53098031       0.01505741      -0.02070304      -0.01440178
C       20.86136965      14.22897971      17.39650753       0.00745157       0.00564666       0.00700883
N       22.13418417      14.27473511      16.94844440       0.02055751       0.01352092       0.00830004
N       20.59757646      13.77395516      18.62782951       0.01313062       0.04257182       0.00605701
C       19.29419779      13.85757312      18.94356207      -0.00242969       0.01321187       0.00932642
H       16.64283417      13.43737528      20.80417868       0.03352924      -0.01660521       0.02127331
H       20.14444595      14.86089598      15.54288366      -0.00208208      -0.00028694      -0.03250955
H       22.80323811      13.68914084      17.43283632       0.02602625       0.01146198       0.02398068
H       22.34283276      14.50443930      15.96930188       0.03696321       0.00559164       0.01510266
N       22.26078330      15.11121460      12.01113109      -0.01000622      -0.02620006      -0.00951874
C       21.92990223      14.97469105      13.38821004      -0.01024996      -0.00363040      -0.00715538
O       22.85472212      14.93206424      14.21778524       0.03018887       0.01579429      -0.05317556
N       20.60478467      14.88377574      13.70448588      -0.01040731       0.06088733       0.01584314
C       19.66635034      14.81265009      12.74383463      -0.01842710       0.00797608       0.02058065
N       18.38278418      14.68412115      13.13698411       0.03872287      -0.03327830       0.01453959
C       20.00871257      14.84148517      11.34107564       0.01106860       0.02234083       0.00180800
C       21.32189942      15.01276856      11.02234457      -0.00283850       0.00482030       0.01690398
H       21.67984835      15.07661923      10.00007281      -0.00513758       0.01499467       0.00627144
H       19.25270169      14.77367737      10.56723191       0.00893304       0.00731685       0.02085062
H       18.13170080      14.74670409      14.13909876      -0.01406959       0.03799268       0.00379495
H       17.63913101      14.69240721      12.45240894      -0.00837254       0.02257326      -0.00426032
N       24.05962491      11.67099282      14.20200124      -0.00357332       0.01516951      -0.00407880
C       23.03470113      11.64776420      15.18149633       0.00476374      -0.01890429       0.01363816
O       23.35572920      11.61203287      16.38500518       0.04526530      -0.03755816      -0.02229815
N       21.74412515      11.65768616      14.73544680      -0.01690809       0.00015170      -0.01504455
C       21.46607609      11.69776164      13.41949681       0.02253675      -0.01040011       0.00060575
N       20.16890699      11.67159056      13.05190425      -0.03013127       0.03619394      -0.02871254
C       22.50492323      11.76316564      12.42515874       0.00912793       0.01146609       0.00259990
C       23.79225803      11.74510492      12.86507720       0.00255311       0.02038525       0.00851138
H       24.64500604      11.79181425      12.19694712       0.02364181      -0.00686690       0.01286477
H       22.27406061      11.85253977      11.37105617       0.00402326      -0.06422051      -0.00552222
H       19.41327984      11.79334912      13.75276453       0.01241791      -0.05401734       0.00186816
H       19.93691658      11.76122230      12.07223019      -0.02092570       0.02100386       0.00541783
C       12.18518271      12.41132008      12.93927732      -0.00357229       0.00350441       0.01092770
C       12.95521667      11.96291753      11.87873013      -0.03301605       0.01059757       0.00388442
C       14.36642343      11.94168543      11.95417138      -0.03618982       0.00310281       0.01974659
C       14.99715594      12.38690003      13.09561906      -0.01459101      -0.01574287      -0.00092405
C       14.24454421      12.88291596      14.19880001       0.00717903      -0.00626064      -0.00449892
C       14.90642385      13.35329172      15.35357686       0.01105934      -0.00875975      -0.00662368
C       14.13260219      13.74090548      16.42368398      -0.00122127      -0.06905829       0.03976108
N       14.52109762      14.14506210      17.67734565      -0.00209802       0.01979338      -0.01144861
C       13.40880025      14.24498070      18.47965554       0.00393225       0.01848726      -0.00830466
C       13.36208385      14.54812907      19.84826333      -0.00574744       0.01789899      -0.00511907
C       12.12294040      14.52137015      20.47481837      -0.01470517       0.00617322      -0.01332706
C       10.94387523      14.19654179      19.76144302      -0.00905131       0.01781672      -0.01640210
C       10.97786711      13.91644054      18.40171995      -0.00192576      -0.00030493      -0.01907296
C       12.22158157      13.94384096      17.72210710       0.01403565      -0.00593616      -0.00436471
C       12.69840772      13.65004338      16.39615316       0.00764132      -0.02476641      -0.00424541
N       12.06130037      13.30753443      15.23210367       0.00341957       0.00895258       0.00492263
C       12.80443738      12.87743439      14.12402942       0.00487944      -0.00183834      -0.00761869
C       10.58161470      13.42034555      15.18211097       0.00633520      -0.00614957      -0.00899269
H       11.10720211      12.37000280      12.85149836       0.00239010      -0.00004731       0.00819925
H       12.45832839      11.60450073      10.98240067       0.00276188      -0.00734616       0.00606369
H       14.94638540      11.56135892      11.11793286      -0.02562053      -0.00375484       0.02091593
H       16.07674561      12.34411220      13.20969788       0.01275216       0.00599530      -0.01440692
H       15.98918078      13.36536372      15.39971220      -0.01116630       0.05998487       0.01245237
H       15.50627008      14.19809428      18.03875821       0.00171595       0.04006088       0.00832575
H       14.27119834      14.79677936      20.38660851      -0.01038006      -0.00458376      -0.00663653
H       12.05263919      14.75144534      21.53388455       0.00687205      -0.00995943      -0.00343242
H        9.99961845      14.16429914      20.29496753      -0.02206161       0.00765880      -0.03494489
H       10.05596817      13.65964984      17.89398961       0.01413181       0.00195969      -0.02753960
H       10.11412215      12.51082808      15.57036283      -0.00657585      -0.00963392      -0.01922003
H       10.28440578      14.27792841      15.78487862      -0.00763309      -0.01158951       0.00273771
H       10.25095472      13.59880200      14.16139331       0.01663967      -0.00537823       0.00227080
H       16.59231979      10.00028511      20.03826555      -0.00156066       0.02818855       0.00538389
H       25.01453839      11.65514981      14.54714740      -0.02124811       0.02606482       0.02960523
H       19.18789490      12.97677272      20.88828496       0.01013992       0.02583342      -0.00846304
H       23.24938783      15.19617354      11.79806564      -0.00591868       0.01597478      -0.00636297
89
Lattice="35.01488724496668 0.0 0.0 0.0 25.195922956900066 0.0 0.0 0.0 31.533992591404534" Properties=species:S:1:pos:R:3:forces:R:3 energy=-12383.088022284923 pbc="F F F"
N       14.46593294      11.23504513      19.41684447       0.01497976       0.01992502       0.00792671
C       13.41161299      10.90925215      18.55965417       0.01395903       0.02493713       0.00349876
N       13.79443943      10.80758076      17.30583472      -0.00860497      -0.00262664       0.00264464
C       15.16657000      11.06082259      17.32913880      -0.00116574       0.00388699      -0.00915313
C       16.12046854      11.12572134      16.26876316      -0.01952136       0.01446091      -0.01785117
O       15.92382181      10.98578396      15.03898489      -0.00041446       0.04235224       0.00330284
N       17.41952486      11.42600564      16.74709230       0.00297425       0.00578653       0.01145941
C       17.74858805      11.66361086      18.07181255      -0.01765577       0.00206048       0.01175817
N       19.05080292      11.90726834      18.34214937      -0.01771747       0.03343360      -0.00581686
N       16.84669318      11.66174362      19.06051681      -0.02924064      -0.00240501      -0.00187639
C       15.60396595      11.34293526      18.63555485      -0.00558238      -0.00651723      -0.00281536
H       12.40073652      10.78998285      18.92502044       0.01278147       0.01476790       0.00849133
H       18.16807671      11.46504940      16.02080145      -0.03645310       0.02262108       0.01435293
H       19.28810810      12.14232774      19.29553666       0.01919072       0.01617944      -0.01009775
H       19.77788670      11.92125923      17.61586819      -0.02797515      -0.00168047      -0.02092415
N       17.87716527      15.42819545      20.48302957       0.03299548       0.03162817      -0.02539787
C       16.53214683      15.78520303      20.56567588       0.01632085       0.00376872       0.02295070
N       16.02145825      16.09889271      19.39346091      -0.00725463       0.01955273      -0.01586679
C       17.07696419      15.94981429      18.49351293       0.00449377      -0.00666224      -0.01414930
C       17.11526678      16.12012407      17.07710064      -0.00221578      -0.03307365      -0.00053787
O       16.18148125      16.47842723      16.31553844       0.01884310      -0.02306845       0.02829345
N       18.36855628      15.75867912      16.54608681       0.04236818      -0.00092354      -0.04152589
C       19.44675071      15.28382384      17.28258424      -0.00117397      -0.00467375      -0.01703305
N       20.54771994      14.92212276      16.57889710       0.01819827       0.01521682       0.01638256
N       19.43118412      15.18363656      18.61538166      -0.01753544      -0.01419095      -0.04037198
C       18.23945696      15.51006793      19.15031866       0.00524711       0.00612437      -0.00645553
H       15.99723505      15.78714621      21.50651190       0.03934868       0.01183325       0.00072865
H       18.42541911      15.77716028      15.50806730      -0.02838601      -0.02391435      -0.02772986
H       21.20599363      14.32853925      17.07173913      -0.00117242       0.01287917      -0.03214136
H       20.46371313      14.76061297      15.56870772       0.02329780      -0.01815765      -0.00019129
N       19.57745496      15.33827198      11.65398032      -0.01850732      -0.02529246      -0.00818588
C       19.41389886      15.17161126      13.05536633       0.01271359      -0.00123362      -0.01551044
O       20.27362464      14.52803815      13.68236235      -0.02646848       0.02043873       0.05429090
N       18.30750783      15.73460910      13.62511195      -0.02222976      -0.02156024       0.00924260
C       17.43011262      16.44487285      12.88560338      -0.04170587      -0.03025726       0.03098591
N       16.35731973      16.95353142      13.52386103       0.03947878      -0.04276928      -0.01472214
C       17.60814161      16.63596336      11.46856795      -0.01382122      -0.01222971       0.01444652
C       18.70008383      16.06379862      10.89372677       0.00839722      -0.01356874      -0.00589297
H       18.92559659      16.14983333       9.83656135       0.00526253      -0.00258910      -0.01094159
H       16.90259921      17.21049603      10.88189721       0.00232222       0.00867593      -0.01471031
H       16.26792080      16.83157529      14.54808082      -0.01390607      -0.00025454       0.04786263
H       15.69413767      17.53425205      13.02885206       0.00609917      -0.00047308      -0.00266829
N       21.74119187      11.61628984      14.08908007       0.01048650       0.01758069       0.01906627
C       20.72413284      11.70141005      15.07340497       0.00142028       0.00325759       0.03685420
O       21.05060417      11.89461307      16.26243045       0.00041549       0.00925032       0.01504713
N       19.43585399      11.55080669      14.65529617      -0.00042115       0.01218240       0.01800647
C       19.14839344      11.36963614      13.35594654      -0.02377396       0.05097212       0.00055124
N       17.84316364      11.25450045      13.01569178       0.01241483       0.01092565      -0.00082121
C       20.17545799      11.31622464      12.34719893      -0.00601741      -0.00777245       0.00488253
C       21.46479078      11.43796349      12.76377830       0.01009312       0.00176738       0.01065311
H       22.31260889      11.39399729      12.08820746       0.00214687       0.00619225       0.02329111
H       19.93817512      11.16359104      11.30127266      -0.00149124      -0.00485887       0.00410502
H       17.12311942      11.15314486      13.76047504       0.01950748      -0.00558495       0.01548730
H       17.60441702      10.95193484      12.07993730       0.00163008       0.01439818       0.01389013
C       12.46297624      12.95675550      12.45786853      -0.00850264      -0.00439762       0.01110460
C       13.30564356      12.90737529      11.36062956       0.01143730      -0.01012860       0.01302727
C       14.68816396      13.17284112      11.49029859      -0.00212733      -0.00339951       0.01851452
C       15.20833683      13.50304380      12.72242979       0.00087572       0.00714098       0.01249402
C       14.37238972      13.59491697      13.86999642       0.00991726       0.01091073       0.00493138
C       14.90139681      13.97722514      15.12287866      -0.01026230       0.00523631       0.00833449
C       14.05308658      14.02630836      16.20396377      -0.00867490      -0.00586777       0.00030699
N       14.30965415      14.32492535      17.52637181      -0.01381351       0.00239267       0.00962004
C       13.15473553      14.16897592      18.26431968      -0.01456479       0.00971106      -0.01102489
C       12.99795345      14.32463553      19.64564018      -0.00637942      -0.00276342      -0.01401200
C       11.76374695      13.99840967      20.19219901      -0.02324123      -0.01484401       0.00973163
C       10.70100321      13.53344960      19.38509292      -0.02022481      -0.00705562      -0.01782854
C       10.84997761      13.40154749      18.01044843      -0.03457208      -0.01555620      -0.02857061
C       12.08858114      13.73184799      17.41204453      -0.01257629       0.00195558      -0.01184867
C       12.66389091      13.66712704      16.09052126      -0.00950126      -0.00270172      -0.00135960
N       12.14570215      13.36520891      14.86517091      -0.00594748       0.00123464      -0.01061300
C       12.97225142      13.29998124      13.73399762      -0.00524608       0.01484761       0.01021859
C       10.68507098      13.13645477      14.73176948      -0.00752768      -0.00318354      -0.00409320
H       11.41792414      12.71513900      12.31695887       0.00314035      -0.01680062       0.02937743
H       12.89438815      12.64904606      10.38932027       0.00490721      -0.01554438       0.01902051
H       15.33222066      13.10812530      10.61867661       0.00995685       0.01070402       0.00993680
H       16.27052226      13.68397152      12.84864311      -0.00076567       0.03658834       0.00876592
H       15.95377699      14.21383860      15.21634794      -0.01212327       0.00512524       0.01504558
H       15.10843696      14.84736322      17.87334585      -0.00952697      -0.01025356      -0.00283798
H       13.82807518      14.66975454      20.25029879      -0.02221330       0.00634343      -0.01731638
H       11.61906957      14.08542848      21.26541918      -0.03426715       0.02668702      -0.01677285
H        9.75640499      13.27243476      19.85154420      -0.00373787      -0.00157043      -0.03007831
H       10.02042929      13.02221714      17.42881456      -0.00919529      -0.03261187      -0.01842247
H       10.46193543      12.06659648      14.76090102       0.01026693      -0.01005353       0.00001954
H       10.17685314      13.64731354      15.54383582      -0.00723868       0.00713584      -0.00704328
H       10.33098711      13.56905845      13.79766655      -0.00781410      -0.01159979      -0.01284266
H       14.40106879      11.43463026      20.40830435       0.05669129      -0.04818659      -0.00653317
H       22.69631477      11.71055070      14.42005743      -0.01088245       0.01913312       0.00732456
H       18.49635360      15.19488757      21.25098665       0.01171600      -0.05270299      -0.00830466
H       20.40230411      14.90757010      11.24921797       0.01608739       0.02585450      -0.01558037
89
Lattice="35.01488724496668 0.0 0.0 0.0 25.195922956900066 0.0 0.0 0.0 31.533992591404534" Properties=species:S:1:pos:R:3:forces:R:3 energy=-12383.086370939282 pbc="F F F"
N       14.08215930      10.46987254      19.39070348      -0.02687060       0.02656515       0.01006073
C       13.02080945      10.17956012      18.52990753      -0.01805840      -0.00614751      -0.00778222
N       13.38261682      10.17987239      17.26564185      -0.01412101      -0.02621600       0.00296860
C       14.74500820      10.47533537      17.28633277      -0.01271822      -0.02773398       0.00858029
C       15.68457593      10.61529740      16.22293933      -0.00444235      -0.00365817       0.00786963
O       15.48447791      10.51223091      14.99265508       0.02482092       0.00431740      -0.01547804
N       16.97557449      10.96410543      16.70594685      -0.00886156      -0.00803161       0.00958302
C       17.29569233      11.19595810      18.03275164       0.00584926      -0.02624994       0.00540086
N       18.54880348      11.65376383      18.29541256       0.00015427      -0.01406805      -0.01807280
N       16.42285821      11.04674932      19.03163178      -0.00687410      -0.01102592      -0.00786243
C       15.19584495      10.67245783      18.60319650       0.00177458      -0.01754264       0.00430403
H       12.02901980       9.97198639      18.90654900      -0.02170423       0.02252029      -0.00090554
H       17.70816350      11.08533289      15.97237734      -0.00662933       0.01345818       0.00752716
H       18.82593784      11.68475469      19.26798926      -0.01447685       0.00393996       0.00202140
H       19.27078186      11.70690386      17.56489128      -0.01316919       0.00339231      -0.03199275
N       16.62668393      16.64975075      20.31197130      -0.03351382       0.00541989      -0.01054204
C       15.45945956      17.42396167      20.26631700      -0.02078429      -0.00450252      -0.01463575
N       15.02926279      17.61218954      19.03923707      -0.01103363       0.00635834      -0.01605963
C       15.95863011      16.96488265      18.22916727       0.00562095       0.00802596       0.01099609
C       16.01655571      16.79858216      16.81021617       0.00861885      -0.00289146       0.01072202
O       15.17754060      17.12958777      15.94467163      -0.05129968      -0.02261440       0.03806159
N       17.20241566      16.12168773      16.41103255       0.01159876       0.02149288       0.01086857
C       18.09686581      15.49955911      17.26656676      -0.02236603       0.01104083      -0.01813862
N       19.05231333      14.72515212      16.69542805       0.00925443      -0.01118276       0.00631463
N       17.99875249      15.58472292      18.59688130      -0.00370445      -0.00009307       0.00594388
C       16.96119623      16.35863592      19.00470010       0.02301292      -0.00719703       0.01124035
H       15.00061510      17.81795004      21.16325845       0.00082481      -0.03795206       0.01244260
H       17.31621365      15.99975788      15.38468841       0.01186101       0.01862404      -0.00345453
H       19.69774479      14.22574876      17.29204327      -0.01487949       0.00829232       0.01381557
H       19.16544789      14.63484626      15.68057977      -0.01970751      -0.00132875      -0.00427883
N       19.06101656      15.53761168      11.75900774       0.01144347       0.02772266       0.03550694
C       18.65243266      15.28696989      13.09445082       0.00183165       0.01919226      -0.02526160
O       19.32078575      14.49324245      13.78676476      -0.01616710       0.00136268      -0.01114522
N       17.52930643      15.91814535      13.53579090      -0.01480338       0.01927093      -0.01834174
C       16.80292962      16.70387683      12.71217884      -0.00487790      -0.01790722      -0.00949611
N       15.65975092      17.21999806      13.19907382       0.02285865      -0.02694362       0.03827962
C       17.21844988      16.96353882      11.35673060      -0.03883960       0.00588166      -0.01075287
C       18.36323309      16.37216092      10.92559900       0.00004165      -0.02094678      -0.01257887
H       18.76949636      16.52065202       9.93108895      -0.00347870      -0.01365204      -0.00482750
H       16.64639136      17.60991816      10.70357400      -0.00545742       0.02378219      -0.00739604
H       15.43456983      17.12138824      14.21050300       0.02675644       0.04954310       0.02690763
H       15.14060120      17.89673874      12.65546286       0.00352138       0.00600867      -0.03085581
N       21.24807040      11.55247678      14.07931353      -0.00223995       0.03095094      -0.00823062
C       20.19715051      11.63440732      15.02567645       0.02641500      -0.00133903      -0.02700378
O       20.47025241      12.00522627      16.18556380      -0.00675840       0.02261440      -0.01427065
N       18.94743489      11.27542265      14.61429476       0.01520036       0.02516699      -0.01472779
C       18.72239839      10.90628817      13.33790994      -0.00526973       0.01812834      -0.00147530
N       17.46424323      10.55803855      13.00516999      -0.00282770       0.03420596      -0.01642112
C       19.77658325      10.88595317      12.35635312       0.00886414      -0.00946732      -0.01638976
C       21.03199410      11.19863680      12.77773961      -0.00777193       0.01296607      -0.00740323
H       21.89953437      11.17200710      12.12680729      -0.00483984       0.02363255       0.00837460
H       19.58743458      10.59939144      11.32961974       0.00750094      -0.02765222      -0.01524870
H       16.71595157      10.52701422      13.72671842       0.01109791       0.01545799      -0.00368439
H       17.25686858      10.25002457      12.06473324      -0.00375330      -0.02831659       0.02338367
C       13.01634898      13.47570935      12.59321764       0.00145884      -0.01387470       0.00485167
C       13.75987990      13.36246830      11.43059777      -0.00195610      -0.00711836       0.00331929
C       15.17194252      13.30312509      11.47005567      -0.00515249      -0.00518386       0.00716155
C       15.82143906      13.36398774      12.68134282      -0.00609403      -0.01432105       0.00561632
C       15.09889182      13.50767018      13.89571345       0.00214379      -0.01584931       0.00174526
C       15.77625068      13.59293898      15.13015090       0.00241427      -0.01708344      -0.00888368
C       15.02380424      13.69385911      16.27338661       0.01372146      -0.00292592       0.00825221
N       15.42218105      13.78463188      17.59008688       0.01124446      -0.01137456       0.00353321
C       14.30901400      13.82233937      18.40909132       0.01565493      -0.01166612      -0.00977533
C       14.27017301      13.91120911      19.79957388      -0.01200037       0.00076310      -0.00571402
C       13.02121538      13.88313588      20.41168142      -0.00013987       0.00281999      -0.01214126
C       11.83528327      13.74376752      19.65663149       0.01024070       0.00631874      -0.00517872
C       11.87464269      13.65394034      18.27125709       0.02648596       0.02882104      -0.00421712
C       13.12341483      13.72815874      17.61065572       0.01275473       0.00956399      -0.00137811
C       13.58614028      13.68750721      16.24635200       0.00783004       0.00224714      -0.00738627
N       12.93941106      13.65742193      15.04669976       0.00988846       0.01461981      -0.00575670
C       13.66330596      13.55342377      13.84986949      -0.00433745      -0.00504656      -0.00530933
C       11.45610188      13.72906435      15.02368136      -0.00695175       0.02985102      -0.00596599
H       11.93737219      13.48191322      12.52079798      -0.00037744      -0.01624115      -0.00453800
H       13.24275917      13.29905676      10.47775281       0.00665916       0.00698826       0.01315634
H       15.73701726      13.19765978      10.54903387      -0.01548267      -0.00017535      -0.00318303
H       16.89887392      13.28462626      12.74395807       0.00292180       0.02461009      -0.01281027
H       16.85897110      13.54942713      15.16210992      -0.00649718      -0.01167178      -0.01544256
H       16.37991874      13.78396552      17.92170059       0.02931778      -0.00081864      -0.00246517
H       15.18501085      14.00142710      20.37402509       0.01685564      -0.02485691      -0.01677594
H       12.95396761      13.95465884      21.49292856       0.00928888       0.01967974       0.00656248
H       10.87840710      13.71162479      20.16801180       0.01208161      -0.03694984      -0.00872838
H       10.95176696      13.50483760      17.72632096       0.00154009       0.02682844      -0.00220241
H       11.03337422      12.72039117      15.01616944       0.00333626       0.00540446       0.00033373
H       11.12057871      14.27242467      15.90194302       0.00140228       0.01823786      -0.01059912
H       11.12529118      14.28386434      14.14861377       0.00273514      -0.00133852      -0.01418426
H       14.05276433      10.56157884      20.39947006      -0.01116322       0.00011878      -0.00172984
H       22.17623417      11.78603994      14.41837542      -0.01769125       0.02769490       0.00006171
H       17.17303251      16.39531060      21.12728909       0.00299379       0.02151345       0.00769017
H       19.92460823      15.09526627      11.46243920       0.00825993      -0.00745826      -0.00188565
89
Lattice="35.01488724496668 0.0 0.0 0.0 25.195922956900066 0.0 0.0 0.0 31.533992591404534" Properties=species:S:1:pos:R:3:forces:R:3 energy=-12383.243691230124 pbc="F F F"
N       13.19710280      10.51477238      19.58932415      -0.00043914       0.02048192       0.00313675
C       12.04978030      10.46434234      18.79451998       0.00629920       0.01287763      -0.01155042
N       12.32507927      10.48484299      17.50751058       0.02216805      -0.00594336      -0.00808972
C       13.71675316      10.54749718      17.44281493       0.01642729      -0.01256293       0.00238907
C       14.60449283      10.61042804      16.32632958       0.01008130      -0.03069640      -0.01837979
O       14.33241203      10.62098477      15.10298450      -0.00196227      -0.01155454       0.00752716
N       15.96033676      10.70327432      16.74053159       0.00366948       0.00384174       0.00622001
C       16.39080807      10.82689565      18.04576937      -0.00691421      -0.00418370       0.01207236
N       17.70722603      11.14412346      18.23550002      -0.01344224      -0.01675434       0.01437298