89
Lattice="40.67527339 0.0 0.0 0.0 25.102344260000002 0.0 0.0 0.0 31.223254589999996" Properties=species:S:1:pos:R:3:forces:R:3 energy=-12381.781327236456 free_energy=-12381.781327236456 pbc="F F F"
N       22.60915775      10.23424243      19.51995960       0.01778586      -0.00191187       0.00401246
C       21.49497218      10.15764710      18.68555190       0.02256657       0.00675069      -0.02862461
N       21.81831210      10.07946522      17.41142010      -0.03489142       0.03437359      -0.00706076
C       23.20676664      10.12108662      17.39423968       0.01763057       0.03399461       0.00981030
C       24.13681947      10.12877259      16.30310992       0.03140397       0.04610811      -0.04355809
O       23.90203319      10.08272906      15.07641521       0.01123264       0.03037347       0.04241703
N       25.47834996      10.22262609      16.76502158      -0.01218754      -0.00308532      -0.01210475
C       25.87356711      10.29234710      18.08611001      -0.00789483       0.00159768      -0.01117350
N       27.21174932      10.32490882      18.33186045      -0.00145627       0.02192997      -0.01633165
N       25.00757541      10.30334216      19.10548104       0.01121258      -0.00813240       0.01328129
C       23.72273273      10.22156449      18.70276611       0.03172999       0.01819878      -0.01884876
H       20.49024698      10.16491151      19.08531159      -0.00912485      -0.00728548      -0.00622875
H       26.20980052      10.29056186      16.02564079       0.00811646       0.00661493      -0.01663092
H       27.46581087      10.60928269      19.26995937      -0.00402223      -0.00803727       0.00047617
H       27.87624556      10.55547581      17.58060719       0.00751739      -0.00334449      -0.01267965
N       24.61831311      13.54398694      20.36164859       0.00673218       0.01674097      -0.00082687
C       23.22468284      13.61180767      20.31931899      -0.00492006      -0.02991067      -0.01565905
N       22.75727104      13.67107295      19.09040365      -0.02610133      -0.03552853      -0.00435134
C       23.88813462      13.64521500      18.27735886      -0.01335791      -0.03126359       0.00371730
C       24.02670099      13.67773153      16.85140617      -0.01574389       0.00694815      -0.02821066
O       23.13154043      13.72853293      15.98120802       0.01618818       0.04179329       0.00495554
N       25.39406702      13.64088657      16.46242689      -0.02514950      -0.00019489       0.00859211
C       26.47530329      13.58645322      17.32206260      -0.00730759      -0.00203169      -0.00962878
N       27.71259143      13.61876082      16.76340647      -0.01919637      -0.02187238      -0.00526305
N       26.34592006      13.52777818      18.65104053       0.00433745       0.01332963       0.00671058
C       25.05984109      13.56696135      19.05420714       0.00746803       0.00924003      -0.00214841
H       22.62999659      13.62600482      21.22245417      -0.00826096      -0.00496069       0.02361250
H       25.57330281      13.66346244      15.43900580      -0.00223018       0.00266778      -0.00737752
H       28.47644214      13.30627619      17.34927897      -0.00137657       0.00286215       0.00182857
H       27.83688217      13.50164998      15.75267220      -0.00871244       0.00614545      -0.01043559
N       27.39315687      14.34274924      11.81526272      -0.00352344      -0.00775753       0.01014712
C       27.16012376      13.91521222      13.15347570      -0.01463266       0.00499463       0.01298716
O       28.13796953      13.57703164      13.84563300       0.01697340       0.00594388       0.01845795
N       25.86830492      13.90929992      13.58951918       0.02117972      -0.03362026       0.01232278
C       24.86034884      14.31033460      12.78952151       0.00234639       0.01166098       0.01010032
N       23.61205677      14.26844333      13.29206923       0.04456699       0.05070576       0.00613877
C       25.09736476      14.76487906      11.43822211       0.02305303      -0.00451331      -0.00137040
C       26.38314937      14.76873597      10.99486596      -0.00712710      -0.00693118       0.01238192
H       26.66847001      15.10001944      10.00173449      -0.00798636      -0.00676714       0.00796939
H       24.28847144      15.10045162      10.80082944      -0.00801979      -0.01114419       0.00281896
H       23.44329710      14.01701180      14.29094654       0.00022163      -0.02439771       0.00790306
H       22.85155233      14.67432691      12.76498569      -0.03766049      -0.03022795      -0.04529359
N       29.73594845      10.92094986      14.02535208      -0.00180749      -0.01754675      -0.00242147
C       28.76818682      10.81474745      15.05550269      -0.03652047       0.00593873      -0.01435396
O       29.13185356      10.99927409      16.23425587      -0.00236182      -0.02248070       0.02881898
N       27.48977964      10.51329629      14.68808531      -0.01505227       0.01992502       0.02138387
C       27.15796245      10.37782154      13.39064732      -0.02290596       0.00766703      -0.00761304
N       25.86826859      10.11787893      13.09947780       0.03346908       0.00637685      -0.01533355
C       28.13641253      10.50661093      12.33834739       0.01088759      -0.00066900       0.00078573
C       29.41647389      10.78400164      12.70529709      -0.01441103      -0.00223018       0.00984681
H       30.22622667      10.90336694      11.99268374      -0.01596912       0.00184657       0.01452056
H       27.86766851      10.38660676      11.29594069      -0.00488921       0.00033116      -0.00065615
H       25.14264025      10.08381715      13.84483625      -0.01287711       0.01276039       0.00673629
H       25.58644302      10.00094487      12.13663849      -0.01515563       0.00905697      -0.02574034
C       12.25400729      12.43327192      12.13263714       0.02496798       0.02419203       0.06324349
C       13.01006404      12.32194948      10.97692697      -0.01713692      -0.00169333      -0.03667370
C       14.41603462      12.22944987      11.03135487       0.02754166      -0.00146399       0.00641953
C       15.05315468      12.24419558      12.25403690       0.01030704       0.00779353      -0.03356627
C       14.31920713      12.35822075      13.46347237      -0.02676621       0.04017812       0.04720391
C       14.98443320      12.37201265      14.71451431       0.07180269      -0.00572379      -0.01237369
C       14.22389979      12.48107007      15.85430631       0.00225074      -0.02849760       0.00324010
N       14.60680474      12.50631570      17.18551344       0.02183432      -0.03407740      -0.03054008
C       13.47411428      12.58886652      17.98700293      -0.00916444      -0.00064997       0.03426407
C       13.39793966      12.61551482      19.37793133       0.00513244      -0.00987921       0.02054569
C       12.13301316      12.71653291      19.95213778      -0.02217062       0.00573407       0.04724402
C       10.96903842      12.79041975      19.15805986      -0.02170525       0.00276394      -0.00850881
C       11.04099372      12.75673296      17.77203239      -0.00846870       0.01713846       0.04939449
C       12.30962327      12.65670552      17.15213126      -0.03842360      -0.00387877      -0.01760897
C       12.79613071      12.58751506      15.80160659       0.05970308      -0.01981447       0.07084418
N       12.15496299      12.59402293      14.59307293      -0.01533612      -0.01209550      -0.03750623
C       12.88179832      12.46548393      13.39850406       0.01542971      -0.06624653      -0.02600105
C       10.67528378      12.67134264      14.61370511      -0.06670933       0.01267297      -0.01267143
H       11.17896939      12.49407062      12.04194187      -0.01172012      -0.00567905      -0.03280728
H       12.50383676      12.30587948      10.01811301      -0.00489075      -0.00877003      -0.03344954
H       14.99230115      12.14679194      10.11696933       0.00293106      -0.00950383      -0.03794023
H       16.13430784      12.17263393      12.32122684       0.01668646      -0.01327409      -0.04473411
H       16.06814395      12.29588184      14.75819028      -0.03933531      -0.00802750      -0.00920506
H       15.53864031      12.28614619      17.51471874       0.01897114       0.06832142       0.01925499
H       14.29574193      12.56213489      19.98501502      -0.00461564       0.00193758       0.02999192
H       12.04128816      12.74186625      21.03238759      -0.00405669       0.00166865       0.03337549
H        9.99936561      12.87795511      19.63637021       0.00439196      -0.02052717       0.02649676
H       10.12769110      12.80921142      17.19457917       0.01815045      -0.01440949       0.03292401
H       10.27940557      11.73758282      15.02619708      -0.05842318       0.07141959      -0.00631874
H       10.37635699      13.51923066      15.23124532      -0.01519316      -0.01145169      -0.01454267
H       10.27387344      12.82278780      13.61854752       0.02198499      -0.00355532      -0.01032144
H       22.62190985      10.35455707      20.52487483       0.00769068       0.00244306       0.01816433
H       30.67292732      11.17563225      14.31897161      -0.00015067       0.00318714       0.00845225
H       25.21273026      13.46321514      21.17780824       0.01012038       0.00360777       0.00974602
H       28.36239964      14.36662618      11.51701686       0.00422844      -0.00189490       0.00129172
89
Lattice="40.67527339 0.0 0.0 0.0 25.102344260000002 0.0 0.0 0.0 31.223254589999996" Properties=species:S:1:pos:R:3:forces:R:3 energy=-12381.91527191545 pbc="F F F"
N       21.73609541      10.13527499      19.31556856      -0.03025623      -0.00098885       0.03149190
C       20.64281728      10.29556744      18.46091252       0.00955679      -0.00235307      -0.02050352
N       21.00050280      10.48967405      17.21056081       0.00074716      -0.03412985      -0.01761309
C       22.39260882      10.46368358      17.22944192      -0.01232227      -0.04782304      -0.01165018
C       23.35784532      10.58234059      16.17711736      -0.01340162      -0.00658357      -0.00629715
O       23.16700266      10.74438856      14.95124005       0.00394767       0.02063670       0.01409633
N       24.68468881      10.49078656      16.67866968       0.00145216      -0.00933619      -0.01221377
C       25.03797707      10.25817260      17.99373948      -0.01709578       0.01378317       0.00851807
N       26.36199866      10.12482312      18.27054961       0.00982779      -0.00741609       0.02213874
N       24.13994309      10.13267953      18.97512158      -0.00698672      -0.00695741      -0.00115134
C       22.86974916      10.23915747      18.53576183       0.02692665      -0.01943394       0.00700060
H       19.62785724      10.25581386      18.83151250      -0.01315479       0.00853812       0.00080167
H       25.44221004      10.58832190      15.96851155      -0.00365868       0.00600044       0.00594028
H       26.60240585      10.13006907      19.25367825       0.00694455       0.00734461      -0.01359857
H       27.07660147      10.42785320      17.59816257       0.00987561       0.03270906      -0.01852223
N       23.53743491      13.28946767      20.23267618       0.00959073      -0.01636867      -0.00914953
C       22.15503644      13.41499909      20.08868082       0.00436368       0.00200186       0.01347052
N       21.79354243      13.67100189      18.84843325       0.00615934      -0.00349619      -0.00244049
C       22.98621104      13.71477699      18.13333333       0.00679080      -0.00930842      -0.00112409
C       23.24291119      13.91037327      16.73586705      -0.03550951       0.02656515      -0.03410569
O       22.42769340      14.08830467      15.80717704       0.01570584       0.01679085       0.03411186
N       24.63123139      13.86138995      16.45270699       0.04244686       0.00375278       0.00772102
C       25.63435735      13.61684142      17.37040005      -0.00103718       0.00908885      -0.03497215
N       26.90357275      13.60351855      16.90259738      -0.00439504       0.01639798      -0.01521836
N       25.39874315      13.40531010      18.67134564      -0.01530218       0.00051268      -0.01925037
C       24.08865688      13.47256242      18.97895227      -0.02741568      -0.00322931       0.01153860
H       21.48795526      13.31502395      20.93513729       0.00225023       0.00624367      -0.01542251
H       24.89146292      13.92377983      15.44717982      -0.00066077      -0.01449434       0.00482853
H       27.61254324      13.20446415      17.50261303       0.02181787      -0.01044176       0.00542554
H       27.11899319      13.69855975      15.90387734      -0.00200289      -0.00877672       0.00133183
N       26.93670586      14.07437903      11.88027605       0.02314250      -0.00117654      -0.00995685
C       26.64938598      13.98571732      13.27075820      -0.02824666       0.02893674       0.04210130
O       27.59944563      13.99796927      14.07478508       0.04881394       0.01321187      -0.03426098
N       25.33893023      13.87892286      13.63165985      -0.00308995       0.01276656      -0.01871866
C       24.36716881      13.77186380      12.70296887       0.00785626       0.03175004       0.00072557
N       23.09966457      13.67690724      13.12955339      -0.03870693      -0.00805630       0.00437396
C       24.67195828      13.75736350      11.28866336      -0.00748551      -0.00272074      -0.02229455
C       25.97034075      13.93185280      10.92323513      -0.01141313       0.00145936       0.01480030
H       26.29788209      13.96900273       9.88913437      -0.01380631       0.00642262       0.01517774
H       23.89382400      13.65474364      10.54170540      -0.00426186       0.00156272       0.00824347
H       22.86158726      13.76390598      14.14098301      -0.01762337      -0.00994349      -0.01051067
H       22.34412458      13.61573790      12.46076738       0.01324632      -0.01744854      -0.00330078
N       29.06217676      10.98291424      14.14680501       0.00388648       0.00441716      -0.01978618
C       28.04208319      10.91548515      15.12998102      -0.02515053      -0.01916295      -0.02828008
O       28.36609677      11.00369094      16.32923089      -0.00344322      -0.02603705       0.01765474
N       26.76065985      10.74984048      14.68926376       0.02253778       0.00329770       0.00137554
C       26.48129865      10.66750784      13.37455615      -0.00888830      -0.02446765       0.00794111
N       25.18927459      10.51598932      13.02130685       0.01570636       0.01101461      -0.01176897
C       27.51816259      10.73453150      12.37432594      -0.02174022       0.00841934       0.00082995
C       28.79624150      10.89872456      12.81021814       0.02287202       0.01145324       0.01295836
H       29.64583453      10.96702697      12.13944716       0.00861731      -0.00002417       0.00197564
H       27.29238103      10.66372947      11.31717390      -0.00192576      -0.00496891       0.01237112
H       24.43448999      10.57769859      13.73508645      -0.01374049       0.02714519       0.02396371
H       24.93474586      10.51208844      12.04314666       0.01690500       0.00391785      -0.00091943
C       12.19471106      12.22368641      12.35039987       0.00989772      -0.00314035       0.01064385
C       12.94282085      11.96537852      11.21087281       0.00613568       0.00296397       0.01740431
C       14.35147294      11.91467964      11.26150067       0.00625292      -0.00005554       0.02210583
C       14.99947341      12.09394253      12.46593307       0.00179309      -0.00297734      -0.00675789
C       14.27242098      12.33729820      13.66274636       0.02265296       0.00167636      -0.01259841
C       14.93707221      12.48077694      14.90616901       0.01198237       0.00852424       0.01515408
C       14.17299628      12.65862504      16.03741926      -0.00517357       0.00259784      -0.00245386
N       14.55462869      12.78083233      17.36318756      -0.00286935       0.00652237       0.01654402
C       13.42205687      12.89543915      18.16306792       0.00898755      -0.00800179       0.02185695
C       13.34492186      13.00678994      19.55263886       0.01312600      -0.00660208      -0.01827180
C       12.07661185      13.05143553      20.12763428      -0.01589970      -0.00356098      -0.01513300
C       10.90872764      12.96804507      19.33774201       0.00200700      -0.00408651      -0.00370239
C       10.98068099      12.87145560      17.95401220       0.02103522       0.01263029      -0.00223120
C       12.25286180      12.85760376      17.32992605       0.01382122      -0.00913256      -0.00490515
C       12.74169839      12.73700046      15.98235842      -0.00040983      -0.02080640      -0.00678360
N       12.10849184      12.70059596      14.76636732      -0.01516591      -0.01605448       0.00504091
C       12.83526907      12.42879651      13.59313911      -0.00308584      -0.00532424       0.00774005
C       10.65236075      12.99136892      14.71535958       0.00773902      -0.00985350      -0.01507592
H       11.11589003      12.23321347      12.27044204      -0.01380940      -0.00276599       0.01743414
H       12.43213600      11.78703280      10.27043144      -0.01966328       0.02351634      -0.00859931
H       14.92051138      11.72242057      10.35865893       0.00452668      -0.00824707      -0.02124760
H       16.08255999      12.04158011      12.52472182       0.00365148      -0.00679440      -0.00465833
H       16.02003124      12.42435163      14.95560633       0.02219891       0.01153654      -0.00412559
H       15.50926530      12.72980870      17.69681547      -0.00328330       0.01492885       0.00731016
H       14.24254171      13.04753857      20.16185305      -0.00163625      -0.00011981      -0.00499411
H       11.98457251      13.13888790      21.20561466      -0.00142388      -0.01007255      -0.00134160
H        9.93901898      12.96851949      19.82390796      -0.01009518       0.01885699      -0.00471900
H       10.06717830      12.78209787      17.38000692       0.00752665       0.02318364      -0.00755082
H       10.07073428      12.08774783      14.91923666      -0.00304830      -0.00903794      -0.01518185
H       10.42805382      13.75530470      15.45928558      -0.00082121      -0.01178234      -0.00213864
H       10.38649526      13.38784402      13.73803663       0.01647100       0.00120328       0.00613774
H       21.73026596       9.93797034      20.30940449      -0.02342789       0.02039142      -0.01402177
H       30.00554606      11.12948473      14.49114312      -0.00563329       0.00642005       0.00347202
H       24.05717370      13.03841887      21.06580184      -0.00742946       0.00649564      -0.00903126
H       27.91542345      14.17908686      11.63548432      -0.00052965      -0.00759555      -0.00696152
89
Lattice="40.67527339 0.0 0.0 0.0 25.102344260000002 0.0 0.0 0.0 31.223254589999996" Properties=species:S:1:pos:R:3:forces:R:3 energy=-12382.016203086981 pbc="F F F"
N       21.07543331      10.13644480      19.19633054      -0.01333014      -0.01333631       0.01138639
C       20.02353003      10.33020673      18.29997570      -0.02663560      -0.00517820      -0.00439144
N       20.43692480      10.56040457      17.07338338       0.01009621       0.01897680      -0.02369220
C       21.82893178      10.52303276      17.15413692      -0.02263908       0.01969259       0.01585702
C       22.84052791      10.71619627      16.15905462      -0.01447840      -0.02202407       0.01464141
O       22.70563567      10.96301924      14.93996950      -0.02301960      -0.02713080      -0.01215206
N       24.14144736      10.60227713      16.71567831      -0.01678262       0.01477150       0.00870164
C       24.43591115      10.30910266      18.03438215      -0.01808308       0.00014655      -0.05222477
N       25.74758529      10.15652868      18.35452804       0.00843990       0.00671521       0.03190019
N       23.49534610      10.14504685      18.96802871      -0.00097496      -0.01519933      -0.00094719
C       22.24527705      10.25804832      18.47251001      -0.00671624       0.01722536      -0.01983915
H       18.99154257      10.27670475      18.62252600       0.01921437      -0.00936961       0.00495195
H       24.92410884      10.72387287      16.03791957      -0.00785215      -0.03810684      -0.01287763
H       25.95733358      10.13846920      19.34492999      -0.00356663      -0.00223120      -0.03225706
H       26.48178111      10.48400833      17.71421281       0.00019952      -0.00381192       0.00943029
N       23.15039712      13.25384106      20.21667154       0.00104798       0.01775501       0.01793293
C       21.76895575      13.36524719      20.05497684       0.01899274       0.00140279       0.01416009
N       21.42439314      13.66276666      18.81859924      -0.00195815      -0.00426649       0.03204006
C       22.62918634      13.75036185      18.12595609      -0.02227912      -0.00221886      -0.02308182
C       22.90412865      14.00876532      16.74215397       0.03249772       0.01378677       0.01082640
O       22.09843062      14.22455420      15.81327208      -0.01000365      -0.01049422       0.00970900
N       24.30024961      13.98163973      16.47811164      -0.02500861      -0.01743105       0.00084075
C       25.29168097      13.72413047      17.40687270       0.01793036       0.00680982      -0.03738847
N       26.57697268      13.76950231      16.97319419      -0.00435339      -0.01886367      -0.01019134
N       25.03597370      13.46087237      18.69307728      -0.01103569       0.04087437       0.05495888
C       23.71887488      13.49164931      18.98090853       0.02272907       0.01596604      -0.02574497
H       21.09011009      13.21768174      20.88551078       0.01223331       0.01985766      -0.02769901
H       24.56898950      14.06464820      15.47602967       0.00249603       0.01227393       0.01906679
H       27.26705829      13.32540809      17.56591544      -0.01083566      -0.00406594       0.00141051
H       26.79983948      13.84287966      15.97439646      -0.02010243       0.01023762      -0.00804961
N       26.62579963      14.17350532      11.91720371      -0.00842036      -0.01815508      -0.02590747
C       26.31973097      14.10000370      13.30636500       0.00433128       0.00770508      -0.01150723
O       27.26360453      14.09018118      14.11708684       0.01375746      -0.00623647       0.02908278
N       25.00358981      14.04004758      13.65104269      -0.01301390      -0.01308383      -0.00719138
C       24.04082461      13.94035580      12.71243727       0.01133497       0.00226926      -0.01765371
N       22.76540771      13.87081401      13.12704530       0.01747476       0.01224051      -0.03213108
C       24.35899212      13.90688973      11.30243311       0.00439659       0.02429590       0.00503731
C       25.66502917      14.05158147      10.95128684       0.01843121       0.01121207      -0.00258910
H       26.00292393      14.08282289       9.92077323      -0.00525534      -0.00612128      -0.00091171
H       23.58511376      13.81977142      10.54936562       0.00302259       0.00031162      -0.00473752
H       22.52242624      13.94943905      14.13665283      -0.01018106      -0.01265343       0.02886269
H       22.01528988      13.81235007      12.45166836       0.03358221      -0.01304681       0.00098370
N       28.57368019      11.04403080      14.29776255       0.00333318      -0.00731376      -0.01860965
C       27.52003531      10.95632450      15.24410240       0.01398989       0.02223490       0.04183442
O       27.80314194      11.01021636      16.45660471       0.01164864      -0.00532630      -0.01348801
N       26.25292692      10.82059103      14.75853702       0.02431647       0.03398433       0.03109904
C       26.02175221      10.74085645      13.43494184      -0.00898138       0.02505283       0.01368855
N       24.73924056      10.63509116      13.03412580      -0.01329620      -0.01748145      -0.05081374
C       27.09650516      10.77407861      12.47384846      -0.00814114       0.01866672      -0.00782952
C       28.35853695      10.94588254      12.95387802      -0.02002941       0.01323141      -0.00796116
H       29.23266738      11.01123284      12.31476132      -0.00249654      -0.00553147       0.00211602
H       26.90893018      10.68279972      11.41070695       0.00332701       0.01412821       0.01235621
H       23.96686536      10.72776698      13.72501139      -0.00223172       0.03522514       0.01729170
H       24.52372402      10.62747234      12.04613944      -0.00120225       0.01189187       0.03408872
C       13.08113781      12.12434289      12.40168557      -0.00320617       0.00298659      -0.01400943
C       13.78010786      11.81917057      11.24462624      -0.01438327       0.00579012       0.01310337
C       15.18330484      11.66414630      11.26286116      -0.00426238      -0.00447783      -0.03442245
C       15.87106057      11.78171578      12.45219512      -0.02308131      -0.00749014       0.02106865
C       15.18929531      12.05988984      13.66969314       0.01222148      -0.01027721       0.01596707
C       15.88228594      12.11140690      14.90537041       0.02503689       0.00151901      -0.02745064
C       15.14966998      12.32388093      16.05035225       0.01863279       0.01111951       0.03796903
N       15.55710740      12.36992674      17.37373469      -0.06243924       0.01923185      -0.02226164
C       14.45075783      12.58966006      18.18860144       0.02073852       0.00722737       0.02894754
C       14.39574897      12.68172885      19.58163648       0.01703253       0.01516437      -0.01727421
C       13.14697555      12.86981635      20.16991323      -0.00798636      -0.01661087      -0.00840854
C       11.96983074      12.93570441      19.39210649       0.00083355      -0.00839002       0.00804755
C       12.01776956      12.83811358      18.00797394       0.01063408       0.01952547       0.03211771
C       13.27408002      12.68850718      17.37182772       0.01307972      -0.00693992       0.00058210
C       13.72983500      12.53976099      16.01748747       0.02706446      -0.01441978      -0.00682885
N       13.08128654      12.58323508      14.81417968      -0.05099064       0.00133286       0.00772411
C       13.76438758      12.26832769      13.62934179       0.00756933      -0.02578354      -0.01897886
C       11.66122328      13.02530600      14.77247953       0.04068463      -0.02103728       0.01896909
H       12.00346400      12.21301370      12.35475507       0.01038417      -0.00684531      -0.02042536
H       13.23150025      11.68347415      10.31780614       0.02063876       0.02584216      -0.00686690
H       15.71245954      11.43793523      10.34271153       0.00743923       0.00086235       0.01335328
H       16.94743269      11.64715074      12.48594854       0.02161115      -0.01808103       0.00041189
H       16.95729599      11.95650720      14.93996593       0.00531756       0.01858239      -0.00273051
H       16.52150664      12.33314434      17.68052751       0.03168833      -0.01440898       0.01041811
H       15.29439681      12.60160737      20.18446386       0.01938355       0.01827335      -0.00639536
H       13.07449798      12.94993379      21.25053503       0.00667510      -0.00411531      -0.02005101
H       11.01290174      13.05453804      19.88955896      -0.00468764      -0.00306578      -0.01736883
H       11.09435614      12.85845702      17.44405519       0.00420427       0.01638873      -0.02161321
H       10.98592486      12.18070693      14.93595225       0.00453800      -0.00822753      -0.00383969
H       11.50990241      13.78150662      15.54211018       0.01413541      -0.02273318      -0.00581326
H       11.45611465      13.48199063      13.80744607      -0.02837727       0.02217937       0.00751174
H       21.02046022       9.93772186      20.18788428      -0.00303185      -0.00799459      -0.00053119
H       29.50068030      11.20705879      14.67600164       0.01920768      -0.01730558       0.00776627
H       23.66202930      13.00865340      21.05561450      -0.00115237      -0.03131501       0.00941435
H       27.60842680      14.26259390      11.68203910      -0.00138942      -0.01567602      -0.00700677
89
Lattice="40.67527339 0.0 0.0 0.0 25.102344260000002 0.0 0.0 0.0 31.223254589999996" Properties=species:S:1:pos:R:3:forces:R:3 energy=-12382.476571196954 pbc="F F F"
N       20.48217992      10.05045839      18.73483441      -0.00307247       0.00985555       0.01171086
C       19.49817265      10.39601641      17.81095880      -0.01946685      -0.00498743      -0.01531863
N       19.99465082      10.70045937      16.62949725      -0.02807902      -0.03956465      -0.02519938
C       21.37756581      10.56057699      16.77648355       0.01147226      -0.02291367      -0.01893206
C       22.46134589      10.73509032      15.85223192      -0.03576610       0.00012856      -0.00809589
O       22.42417956      11.01559685      14.63372878      -0.00520083      -0.00978922      -0.00911919
N       23.71579689      10.54987259      16.48845978       0.00229651      -0.00389419      -0.01938920
C       23.91495049      10.16769763      17.79947856      -0.04989586       0.01676154       0.03045061
N       25.20244336       9.97815183      18.19612060      -0.00442281       0.03167188      -0.01097964