91
Lattice="34.190316925133075 0.0 0.0 0.0 28.098385432032423 0.0 0.0 0.0 31.67263756593198" Properties=species:S:1:pos:R:3:forces:R:3 energy=-12182.645908260542 free_energy=-12182.645908260542 pbc="F F F"
N       17.26477950      11.07443013      20.12851175      -0.00160951       0.04449500       0.00803213
C       18.23550611      11.72256772      19.34382675       0.00082430       0.00689827       0.00252020
O       19.33721906      12.04791655      19.78188601      -0.01442698       0.04966189       0.02075806
N       17.81999427      11.95314141      18.03997297      -0.02125583      -0.00102330      -0.00726542
C       16.59378631      11.58907989      17.47765805       0.00626835       0.02632758      -0.00765315
O       16.36106430      11.83116967      16.27361726       0.00758116       0.00453645      -0.01379603
C       15.63376433      10.94114172      18.37129252       0.00430197       0.02340373       0.01088657
C       14.28373843      10.56392456      17.82227543      -0.01449074       0.01028236      -0.00619893
C       16.02045025      10.70401620      19.65243748       0.01606014       0.00360006      -0.02622423
H       15.37557637      10.20762347      20.37060602       0.00253562       0.00114157       0.01232433
H       13.71599190      11.46187561      17.55120550      -0.02357753       0.00885951      -0.01423723
H       13.70023535       9.99192761      18.54925985      -0.00366639       0.00912330       0.01469746
H       14.39042846       9.96759777      16.91021357       0.00411017      -0.00043863      -0.00539366
H       18.56365900      12.32450372      17.38199260       0.02671479       0.00437190       0.01657899
N       19.42834736      15.38037330      20.65322108      -0.02504306      -0.01482601      -0.00327713
C       18.04379851      15.44845037      20.70540085       0.02522098      -0.03679969       0.04230493
N       17.48634696      15.66045762      19.52454965       0.01772159      -0.00622670       0.00201266
C       18.57127905      15.74136215      18.65045307      -0.01928276      -0.01201939      -0.01965197
C       18.65926968      16.02403684      17.27510208      -0.00393790      -0.00936653      -0.02336156
N       17.55703903      16.30172382      16.50519627       0.01197157       0.02423933      -0.01032812
N       19.88128383      15.99561775      16.69663670      -0.03674621       0.02916248      -0.08115276
C       20.97602871      15.75701064      17.45956450      -0.01139667       0.00315886      -0.00693735
N       21.01481425      15.55183935      18.78260848       0.07764886      -0.02617023       0.03817729
C       19.78882366      15.54951250      19.32749123      -0.03245298       0.03540255      -0.01576395
H       17.50901268      15.35084198      21.64026869      -0.01073384      -0.04161228       0.00999542
H       16.76640855      16.71215559      16.98851132      -0.00442847      -0.01730198      -0.00375792
H       17.71722134      16.61062243      15.53997310       0.02799160       0.00121408      -0.01400634
H       21.91691882      15.73369999      16.91614206       0.00985195       0.01904159       0.03966081
N       21.69138869      16.76365707      12.09666115       0.00766600       0.00418421       0.04903146
C       21.57030621      16.45251645      13.45997664       0.04757827       0.00895361       0.02382641
O       22.54112199      16.22448718      14.18003096       0.00189387       0.00843785      -0.02568687
N       20.25554820      16.41980055      13.90047114      -0.03954820       0.01683250       0.08891595
C       19.11382348      16.63289432      13.12725750       0.00021546       0.01929202       0.00260607
O       17.97459852      16.48978044      13.63048593       0.00827844       0.00454725       0.01113699
C       19.33357380      17.04271702      11.74304282       0.00139251       0.01337385       0.01001445
C       18.15032075      17.46739736      10.91226936      -0.00801361      -0.00885591      -0.00498691
C       20.61423299      17.07404243      11.28895285       0.01696671       0.01105523       0.01362376
H       20.86027025      17.35276250      10.26848993       0.01335791       0.01158539       0.02875265
H       17.49130254      16.62797323      10.66424520       0.01289974      -0.03860306       0.02036828
H       18.47771305      17.94216545       9.98325408      -0.02368912      -0.02720536      -0.04037506
H       17.54170303      18.18560162      11.47201005      -0.01485532       0.00192730      -0.01102952
H       20.11863037      16.21458849      14.92421960       0.01854331      -0.01013220      -0.00700317
N       23.07298398      13.23576500      13.90330425      -0.00989566       0.00990543      -0.01049267
C       22.39043485      13.41354594      12.70879552       0.00946629       0.00924672       0.00986070
N       21.07772322      13.33199906      12.84052202       0.03687065      -0.06650210      -0.02675439
C       20.88780941      13.10069220      14.20151988       0.01328181      -0.02357805      -0.00261481
C       19.73187910      12.87240609      14.97077015      -0.02152785       0.05187561      -0.00377387
N       18.46898261      12.85327023      14.43395445      -0.02572132      -0.01352092       0.03162303
N       19.88471906      12.69691344      16.30521779      -0.00390036       0.01999599      -0.01065825
C       21.12969710      12.71393421      16.84747304      -0.00951771      -0.00758990       0.00853298
N       22.29400827      12.87523251      16.20509013      -0.01918814       0.00821005       0.01305555
C       22.11590075      13.05954004      14.88616962       0.00742175      -0.01234232       0.00391836
H       22.91193856      13.61535294      11.78341454       0.01505484      -0.03837680      -0.01852840
H       18.42390667      12.70942246      13.43049096      -0.01765988       0.01062226       0.02587867
H       17.73550359      12.40535049      14.99434139      -0.04073759      -0.01225131       0.02676004
H       21.16196907      12.58979370      17.92672485       0.01004530      -0.02292961      -0.01440126
C       11.13665563      14.15467973      17.57589777       0.01710349      -0.00515866       0.02124091
C       11.13343050      14.29178676      18.95384517      -0.00545948       0.00327610       0.00729165
C       12.33650308      14.46907288      19.67491215      -0.01848572      -0.00475757       0.03495518
C       13.53599896      14.53410411      19.00259947       0.00087212      -0.03215010      -0.01054512
C       13.58673828      14.40201713      17.58534895      -0.00382220      -0.01182913       0.01017951
C       14.81796450      14.48824815      16.89487978      -0.01655379      -0.00091737       0.00984835
C       14.80061198      14.40089026      15.52272478       0.00101970       0.01420740       0.00860651
N       15.82940391      14.48298353      14.61653859      -0.01099507       0.01495919       0.00198695
C       15.34157908      14.27342990      13.34356362      -0.00216178      -0.00323239      -0.02285814
C       16.04993332      14.27081225      12.13674201      -0.00369365       0.00145576       0.01807331
C       15.33210161      14.02782846      10.97214136      -0.00345196      -0.00419296      -0.01579686
C       13.93318892      13.81389658      10.99536269       0.00510158       0.00460999      -0.00614802
C       13.22334245      13.83304740      12.18647539      -0.02069327      -0.02804971      -0.02940931
C       13.92256594      14.04931011      13.40068581      -0.00436265      -0.01499519       0.00907291
C       13.58268925      14.13573874      14.79537659      -0.01063306      -0.00011416      -0.00005091
N       12.40597117      13.98936571      15.47631252       0.06677258      -0.06622391       0.00161825
C       12.35990654      14.17844202      16.86469799      -0.00080116      -0.00024888      -0.00282719
C       11.18873490      13.56309967      14.73932361      -0.01336665      -0.00239318       0.01169852
H       10.19006745      14.05709009      17.05941709       0.02705212      -0.01845949      -0.00128658
H       10.18638166      14.27478996      19.48367820      -0.00362063       0.00323959       0.00329153
H       12.30827187      14.57090809      20.75459968      -0.00992960       0.01341242       0.01260458
H       14.47334969      14.71074701      19.52574034      -0.04217329      -0.02366135       0.00151438
H       15.73972373      14.62052953      17.44852363       0.02613321      -0.01628383      -0.00918244
H       16.80659170      14.64794938      14.84491283      -0.00784958       0.01049627      -0.00116162
H       17.11299698      14.47753322      12.12958343       0.00241735       0.01098890      -0.00145062
H       15.85372864      14.01296656      10.01981760      -0.00571608       0.00176532      -0.00040109
H       13.40575571      13.63993512      10.06372802      -0.00122590       0.01222765      -0.01588788
H       12.14933706      13.70261210      12.16230938      -0.00324576      -0.00255311      -0.00142696
H       11.49335827      12.95559681      13.89207492      -0.00514683      -0.01602620      -0.00739398
H       10.56826131      12.94329121      15.38389699      -0.00728908       0.02341607       0.00784906
H       10.62351961      14.43327356      14.39423277      -0.01043919      -0.00101764      -0.00060524
H       17.54475021      10.85451828      21.07807982       0.01441309       0.01028030       0.00943132
H       24.06591402      13.35700196      14.06622915       0.00692810       0.02094472      -0.00212579
H       20.06539646      15.19840860      21.42103571      -0.00731376      -0.04626598      -0.01608996
H       22.63931503      16.80478145      11.74142282       0.03095043       0.02215006      -0.00663499
91
Lattice="34.190316925133075 0.0 0.0 0.0 28.098385432032423 0.0 0.0 0.0 31.67263756593198" Properties=species:S:1:pos:R:3:forces:R:3 energy=-12182.434165326504 pbc="F F F"
N       16.30212327      10.78716862      20.24634974      -0.02185078      -0.01103055      -0.00741352
C       17.36147825      11.24109424      19.44345251       0.03371951       0.02065007       0.02056111
O       18.46294820      11.52622026      19.90487027       0.01190575       0.02139004       0.00353012
N       17.02769904      11.34778691      18.09720505      -0.00098010      -0.00205637       0.00704379
C       15.79555036      11.03411414      17.51838914      -0.00836277       0.02579691      -0.01627663
O       15.63749440      11.13470337      16.28310159      -0.00775239       0.01008232       0.00132309
C       14.73571047      10.62047901      18.43399835      -0.03123993       0.03148522      -0.04617547
C       13.36917945      10.34345526      17.86723180      -0.02266942      -0.00108038      -0.00512061
C       15.04480139      10.49487458      19.75142939       0.03602990      -0.06143394      -0.01883076
H       14.32089986      10.15822258      20.48703024       0.00176018       0.01945502       0.00634394
H       12.91632142      11.26689279      17.48610203       0.00476014      -0.00004885      -0.00145062
H       12.70033266       9.92224012      18.62273227      -0.00779918      -0.00401401       0.01168258
H       13.43240503       9.64892867      17.02311085       0.00381706      -0.00545640       0.01053638
H       17.82024094      11.61264558      17.44439712       0.01754727      -0.02079817       0.01330649
N       18.68661377      15.75832115      20.74166396       0.02172942       0.04900214       0.00011519
C       17.33046949      16.04406875      20.84064873       0.04043163      -0.06354328      -0.01165173
N       16.79040978      16.38810031      19.68417234      -0.00437756       0.03113966       0.04707382
C       17.85025052      16.33399127      18.78112426       0.02553671      -0.03069897       0.05758809
C       17.92116709      16.59008712      17.39255862      -0.02063413      -0.03224369      -0.01524356
N       16.85586970      17.00667927      16.66384800       0.00678000      -0.00086698       0.00760224
N       19.11023069      16.36518322      16.77248473      -0.00375278       0.00474163       0.01701659
C       20.18815277      15.98960379      17.51007107      -0.01486612      -0.05233841      -0.01983555
N       20.23832678      15.76541391      18.82946355       0.01661344       0.00258036       0.02058580
C       19.03992330      15.94035469      19.41365062      -0.00987869      -0.05786217      -0.03542415
H       16.79912667      15.96839617      21.77991912       0.01814428       0.01848778       0.01970237
H       15.99527155      17.22369169      17.14815514       0.00077544       0.02778900      -0.02157567
H       16.93400407      17.14121892      15.64809865       0.01464655       0.00033836       0.00814834
H       21.10632519      15.86103992      16.94199478       0.00746494      -0.03984696       0.01114779
N       20.90786652      16.90931063      12.15441426       0.01630285      -0.02187958       0.00847024
C       20.78788125      16.60410499      13.51879932      -0.00660311      -0.02346492       0.00229342
O       21.74352013      16.28245135      14.22107775      -0.00607243      -0.03263759       0.00017072
N       19.47819092      16.70006252      13.98072491       0.00023963      -0.00191342       0.01458227
C       18.34217931      17.02329741      13.23085475       0.00132258      -0.01527493      -0.01392510
O       17.22181290      17.06120393      13.78403054      -0.02316513      -0.00747934       0.01620978
C       18.55748247      17.27990440      11.80808960      -0.01080995      -0.02152579      -0.00881631
C       17.36828008      17.58973923      10.93777530      -0.01920203       0.01155145      -0.00555410
C       19.83381523      17.22594250      11.34326406       0.00283747      -0.01194329       0.00652546
H       20.08123152      17.42610784      10.30546915      -0.00086338      -0.00422432       0.00013370
H       16.72436018      16.70926472      10.82928067      -0.00839002      -0.00347716       0.02872899
H       17.67680723      17.91604055       9.94040481       0.01208059       0.00120328      -0.00191753
H       16.75441300      18.37359876      11.39109186      -0.01048804       0.02941856       0.00198026
H       19.34874066      16.57442420      15.01911603       0.01417346      -0.03057865       0.01081715
N       22.39381109      12.59075195      14.03513727      -0.02635792       0.00691730       0.03251880
C       21.75388040      12.58183518      12.80450211      -0.04403992       0.08420878       0.00310024
N       20.45282497      12.37087554      12.89841275      -0.02219891      -0.08327958      -0.00020312
C       20.22707051      12.23564060      14.26658744       0.01420072       0.00457039       0.04035912
C       19.06356314      11.94343252      15.01408828       0.02912854      -0.01871506       0.01168669
N       17.87072353      11.64299433      14.44652821       0.00514581      -0.01982115      -0.02271827
N       19.16770250      11.96799197      16.37144710      -0.02800549      -0.01969105       0.01621338
C       20.38205823      12.16729192      16.94915883      -0.01075030       0.00661442      -0.02076937
N       21.55662935      12.35431748      16.33522733      -0.01762697       0.07972889       0.00496377
C       21.41848733      12.38836745      14.99659406      -0.03613326       0.04468732       0.02234854
H       22.29364977      12.74787981      11.88334993       0.03505391      -0.01545079      -0.03781013
H       17.80390126      11.60014256      13.43886613       0.01626377      -0.03944844      -0.00437859
H       17.05901746      11.40741813      15.02751916       0.01896446       0.02029218       0.01424905
H       20.38025344      12.16001742      18.03651173      -0.01086137       0.00432614       0.00067671
C       11.71481809      14.07127597      17.54986222       0.03963716       0.02154122      -0.00273823
C       11.69496219      14.18697675      18.92856946      -0.00868519       0.01526875       0.00492623
C       12.89138621      14.27534705      19.67628730      -0.00312081      -0.02434681      -0.00247957
C       14.10546642      14.28564719      19.02554044      -0.01123675       0.01845949      -0.02459775
C       14.17295826      14.18923244      17.60639108       0.00714818       0.02644431      -0.00131949
C       15.41164867      14.25942567      16.92985939       0.00023808      -0.00863942       0.02996518
C       15.41366033      14.20493621      15.55682868      -0.03338783       0.01456839       0.04588854
N       16.45744310      14.28113205      14.66526288       0.00279016      -0.01334763       0.04005213
C       15.98468871      14.11019081      13.37683913       0.00891350       0.01615733       0.03468830
C       16.70779607      14.05458367      12.18139589       0.00353012      -0.00314497       0.00751276
C       15.99042405      13.85121769      11.00597414      -0.01673325       0.02252184      -0.01068602
C       14.58126909      13.74199688      11.01016798      -0.01403925      -0.00889859       0.00107369
C       13.86096813      13.79474680      12.19389921       0.00502599       0.01327923       0.04502156
C       14.55796173      13.94904663      13.41607150      -0.00876798      -0.03617131      -0.00034350
C       14.20407377      13.99802140      14.80935449      -0.03266895       0.04606954       0.01892024
N       13.01542163      13.87573678      15.47029969      -0.03707017       0.02237580      -0.03159320
C       12.95074321      14.04143999      16.86043233       0.01635530      -0.04614051      -0.01082486
C       11.78617282      13.55698351      14.69986823      -0.02647362      -0.01436167      -0.03985210
H       10.77330428      14.04304972      17.01668479       0.02703412      -0.02340630       0.00763412
H       10.73714925      14.23103829      19.43572896      -0.01632959      -0.02209812       0.03483279
H       12.84301623      14.35695377      20.75780798       0.02375134       0.01820958      -0.01770256
H       15.03416188      14.41528186      19.57110884      -0.01913107      -0.00505222      -0.01009055
H       16.33114655      14.34785799      17.49422292       0.02090821      -0.01177720       0.01539371
H       17.41877016      14.47101753      14.91930569       0.00514478      -0.01067574      -0.00812674
H       17.78830374      14.15664517      12.17358205      -0.00070191      -0.01701248       0.03037553
H       16.52056050      13.77870761      10.06128428       0.02650088       0.03225809       0.01502090
H       14.04950088      13.61053120      10.07491239       0.01959026       0.00305396      -0.05480872
H       12.78122781      13.72761937      12.15931699       0.00713944      -0.01124189       0.00587137
H       12.04426400      12.88314086      13.88724744       0.05351495      -0.03190431      -0.01675999
H       11.07206083      13.04329829      15.33804798       0.01002268      -0.00693478       0.00651158
H       11.33725933      14.47007751      14.29936309      -0.00055690       0.01576138       0.00271457
H       16.52135976      10.66107704      21.22857537       0.00669155      -0.00055742       0.00507536
H       23.36865804      12.80094742      14.21471604       0.02822557       0.00346842       0.03268335
H       19.31493998      15.46964444      21.48457145      -0.02243699      -0.01169389      -0.01345973
H       21.84984502      16.87992831      11.77970407       0.01270074      -0.00523477       0.00959124
91
Lattice="34.190316925133075 0.0 0.0 0.0 28.098385432032423 0.0 0.0 0.0 31.67263756593198" Properties=species:S:1:pos:R:3:forces:R:3 energy=-12182.618849685352 pbc="F F F"
N       15.41542915      10.47967547      20.25687293       0.00109992      -0.00575104      -0.01428659
C       16.52887031      10.78226948      19.45768824       0.01006381      -0.00491595      -0.02374825
O       17.65351572      10.95917120      19.92015643      -0.00672241       0.02215520       0.00133286
N       16.22413958      10.87063792      18.10466071      -0.00331878      -0.00848001       0.01286786
C       14.96373272      10.73058108      17.51882454      -0.01373638      -0.02115761       0.03394988
O       14.83039695      10.88167833      16.28610849      -0.00523579      -0.05501801       0.01351012
C       13.85825190      10.42633420      18.42565392      -0.01969259      -0.01886419       0.01768662
C       12.46928483      10.27494342      17.85859467       0.00363297      -0.00440019       0.01497359
C       14.14212630      10.30041541      19.74864004      -0.01002936       0.02505694       0.01442235
H       13.38038869      10.06552767      20.48495694      -0.01066031      -0.00273874       0.00202654
H       12.13276301      11.22335429      17.42535564      -0.00700677       0.00746186      -0.03401261
H       11.75458695       9.98464572      18.63227889      -0.02278872      -0.04103584       0.01648591
H       12.45317266       9.52929907      17.05588400      -0.00680828       0.01046285       0.02893211
H       17.04721068      11.04357295      17.46465360      -0.00266572      -0.01915421       0.01322576
N       17.93718788      16.27159680      20.85803460       0.01551198      -0.00401709      -0.03906843
C       16.58771693      16.60088849      20.95306622       0.00029568       0.03701617      -0.03606435
N       16.04995994      16.90487665      19.78456144      -0.02596712      -0.00872118       0.06660906
C       17.09639353      16.77542574      18.87655115      -0.01955067       0.00309921      -0.02676210
C       17.15810974      16.95564581      17.47508563       0.00778582       0.03128673      -0.00543274
N       16.09170558      17.31972183      16.73066601      -0.02924527       0.00310384      -0.00627298
N       18.35272146      16.72212364      16.86398436      -0.00885437      -0.05397466       0.02845234
C       19.42990286      16.37834164      17.61440205       0.02038525      -0.03634615       0.01728707
N       19.48118602      16.18595029      18.93979037       0.01619024      -0.03333487      -0.00163111
C       18.28353553      16.39009095      19.51969611      -0.01164813      -0.01688701      -0.03366757
H       16.06722899      16.59903921      21.90306907       0.02397760       0.00152364      -0.03720181
H       15.22598027      17.54162294      17.20398134      -0.01710864       0.00425363      -0.03434223
H       16.17054214      17.39233842      15.70962737      -0.02214697      -0.00995326      -0.02018830
H       20.35325559      16.25420174      17.05407917       0.02843435      -0.04558052      -0.00284981
N       20.15170378      17.09282756      12.22677063      -0.00134314       0.00946989       0.00276651
C       20.03054548      16.85175042      13.60258215      -0.01682787      -0.00323856       0.00181674
O       20.99287072      16.59610943      14.32350902      -0.02000370      -0.02746144      -0.00578087
N       18.71595221      16.91678300      14.05576084      -0.00232222       0.03623147      -0.00563792
C       17.57471683      17.18599597      13.28806225      -0.01528007      -0.00786758       0.00655271
O       16.45105944      17.23180784      13.82938383       0.01526104      -0.03258462       0.04555532
C       17.79435248      17.38226579      11.85786056      -0.01593107      -0.00183011      -0.03321557
C       16.60193171      17.59785224      10.96694145      -0.05710986      -0.04045014       0.06733360
C       19.07201804      17.35159919      11.40167400       0.00582046      -0.00198541      -0.03570388
H       19.31564023      17.52025437      10.35843178       0.02215263      -0.01170623      -0.03112166
H       15.99400699      16.68505390      10.92044248       0.00112871       0.02151191       0.01041605
H       16.90685895      17.86150833       9.95115553      -0.01219680       0.03253834      -0.02472527
H       15.95860858      18.38620936      11.37105658       0.00274748       0.01552895      -0.04821744
H       18.58600390      16.84233153      15.09916537      -0.00527745      -0.00902149      -0.00432460
N       21.74051939      11.88080672      14.15531747      -0.00537618      -0.02598666       0.01647306
C       21.14258626      11.76311520      12.90545547       0.00756727       0.03216656       0.03353284
N       19.84465801      11.52314852      12.97754755       0.03056168      -0.00626115      -0.06482009
C       19.57633992      11.46936936      14.34433642      -0.02270850       0.00588628      -0.04571422
C       18.38695878      11.21913427      15.07041759      -0.01449691       0.03188425      -0.00900298
N       17.19626059      10.95140369      14.48594963       0.00953725      -0.04217227      -0.01141261
N       18.46085721      11.27668593      16.42845741      -0.04764563       0.00104901      -0.04268032
C       19.65817930      11.49947401      17.02684891       0.00261481       0.02310445       0.03121371
N       20.84220096      11.71359810      16.43850518       0.01823375      -0.00538595       0.01949873
C       20.74131712      11.69392542      15.09684349       0.00352447      -0.00592279       0.00457708
H       21.71821575      11.86336647      11.99275895      -0.05787297      -0.00406080       0.03446101
H       17.14688074      10.89554274      13.47725807      -0.00589708       0.01095444       0.01498593
H       16.34825243      10.84425243      15.05201962       0.00824553       0.00282976       0.00684479
H       19.62846144      11.49325707      18.11308574       0.02240511       0.02725318       0.04073039
C       12.42488381      14.06833312      17.56165730       0.04461121       0.00802853      -0.01340676
C       12.39754170      14.13358180      18.94348669       0.00067003      -0.04016012       0.00662522
C       13.58835639      14.07304585      19.69891014       0.00881066       0.01262617       0.01080686
C       14.80371263      14.00205059      19.05566294       0.00573356       0.02773861       0.01216183
C       14.88211759      13.97528175      17.63704561       0.02598614       0.01534949      -0.00089217
C       16.12967095      13.99104165      16.97106264       0.02545804       0.01587194       0.03728871
C       16.13720912      14.01794447      15.59923827       0.00442898      -0.00370907       0.01163681
N       17.19106406      14.09606918      14.71136705       0.00151129      -0.01392972       0.00317428
C       16.71538403      13.97168957      13.41499936      -0.00552890      -0.01620258       0.02416323
C       17.43974063      13.92566501      12.22119410      -0.01165430      -0.00986687       0.01360679
C       16.71918656      13.77115240      11.03935664       0.00262561       0.00703917       0.00971414
C       15.30922497      13.69642705      11.03676274       0.03513207       0.02154019       0.02458849
C       14.58635533      13.74513900      12.22096531       0.01083154       0.00185428       0.01814993
C       15.28374320      13.85610129      13.44628065       0.00571042       0.01391584       0.00666790
C       14.92287542      13.89422627      14.83883860      -0.00152466       0.03332099       0.00649666
N       13.72549649      13.83194710      15.48602205      -0.03190122       0.03866322      -0.02299595
C       13.66040330      13.95721559      16.87963452       0.00396618      -0.03585712      -0.00015324
C       12.48731686      13.59707656      14.69890957       0.03211771      -0.02898816      -0.07517855
H       11.48914075      14.13589069      17.02336075       0.01538343      -0.00881374      -0.02459260
H       11.44086072      14.23775518      19.44619577       0.01605705      -0.00815811       0.01113391
H       13.54215199      14.11953278      20.78182718       0.01575778      -0.01416061       0.00146501
H       15.72840604      13.99398403      19.62108387       0.02427790      -0.00329975      -0.00607603
H       17.05154830      14.01437942      17.53914882       0.03342794      -0.02950290       0.02761879
H       18.16540928      14.16608366      14.97643353      -0.00236799      -0.00523168       0.00410657
H       18.52320935      13.96964203      12.22003701      -0.02672508      -0.00805784       0.03282322
H       17.24968327      13.70325846      10.09492935       0.03473818       0.02885292       0.01151443
H       14.78041764      13.59554002      10.09367009       0.02865803       0.00885179       0.01773084
H       13.50573109      13.69945566      12.18110426       0.01383974       0.00288992       0.02176490
H       12.69939497      12.86679389      13.92005712       0.05485758      -0.00590480       0.00750814
H       11.71751398      13.17585681      15.33703546      -0.00574384      -0.01601849       0.02182661
H       12.13513225      14.53198362      14.25473562       0.00369776       0.01003604      -0.00307658
H       15.60452694      10.36562287      21.24752677       0.00261224       0.00041395      -0.02256040
H       22.71714516      12.06294113      14.36181615      -0.00970026       0.00219007      -0.01712098
H       18.57445120      16.03084137      21.60985446      -0.02117612       0.00459148       0.01624269
H       21.09916802      17.10181869      11.86375360      -0.00083509      -0.00827638       0.01807434
91
Lattice="34.190316925133075 0.0 0.0 0.0 28.098385432032423 0.0 0.0 0.0 31.67263756593198" Properties=species:S:1:pos:R:3:forces:R:3 energy=-12182.84698698183 pbc="F F F"
N       14.53997098      10.29154041      20.26572835      -0.00385871      -0.00358669       0.00260710
C       15.68954349      10.44710824      19.48001349       0.01267143       0.00060627      -0.00234536
O       16.81845570      10.52031866      19.95999606       0.01193146       0.00802596      -0.00505736