91
Lattice="39.87907478 0.0 0.0 0.0 26.44648255 0.0 0.0 0.0 31.9384511" Properties=species:S:1:pos:R:3:forces:R:3 energy=-12181.623755070617 free_energy=-12181.623755070617 pbc="F F F"
N       23.29621492      10.72964474      19.90102595      -0.01358160      -0.01435138      -0.00648638
C       24.31399706      11.04391289      18.98480289       0.03096945       0.00968278       0.02777409
O       25.48609034      11.18530805      19.32707794      -0.00532990      -0.06186743       0.01907810
N       23.86295721      11.17975176      17.68129244       0.00312595      -0.01051170       0.01270639
C       22.53628330      11.12668083      17.25196453       0.00646015       0.00089423      -0.02835721
O       22.24748897      11.32125790      16.05196556      -0.01736472      -0.00088446       0.01357285
C       21.53497148      10.84647560      18.28217198      -0.00202346      -0.00424643      -0.01321599
C       20.08825915      10.77423302      17.87026970      -0.00301693      -0.00105004       0.00829695
C       21.96295154      10.66226125      19.55769600      -0.01909970       0.01803063      -0.01805429
H       21.27868566      10.45503984      20.37478675       0.01538805      -0.00725308       0.00744849
H       19.76447699      11.72477280      17.42691786       0.00214481      -0.00969049       0.00307195
H       19.44668784      10.54818334      18.72783331      -0.02131907      -0.00009462      -0.00105107
H       19.93897103      10.00305240      17.10523908       0.00234330       0.01253104       0.00607192
H       24.61884366      11.36601281      16.95850918      -0.01575418       0.01444909      -0.01392047
N       25.36206184      14.25926054      20.84850636       0.01078526      -0.01022631      -0.00289506
C       23.99513848      14.04914325      20.96019781      -0.00056359      -0.00925649      -0.01072253
N       23.37140922      14.09035650      19.79571695      -0.07006051      -0.02065727       0.02208578
C       24.38279332      14.34071566      18.86992736      -0.01916655      -0.02050609      -0.00663190
C       24.37407346      14.48692494      17.46304956       0.01017026       0.01370192      -0.03939702
N       23.25336908      14.41531782      16.70489956      -0.00241324      -0.00223892      -0.00870627
N       25.56512576      14.72115537      16.85421757       0.02543695      -0.01112208      -0.06127916
C       26.70195947      14.79256729      17.58600363      -0.01782649       0.01054358       0.01491189
N       26.82093566      14.66381861      18.91545972       0.06564695      -0.00266058       0.01665304
C       25.63287301      14.43993098      19.50116453       0.01753852       0.01054152       0.00022986
H       23.52057452      13.89029522      21.92069528       0.02057448      -0.01443983      -0.02823894
H       22.39474511      14.10121460      17.13409285      -0.00392145       0.00065666       0.00324576
H       23.31660394      14.46635861      15.68276500       0.01133034      -0.00065049      -0.01596809
H       27.60907020      14.96767051      17.00966591      -0.04902683       0.00002057       0.03884783
N       27.16524025      16.09595718      12.40235834      -0.03561081       0.00668230       0.00587600
C       27.08103285      15.66311604      13.73504246       0.01286323      -0.01160905      -0.01282569
O       28.06548869      15.59042983      14.46963305       0.01256241       0.01577475       0.01741408
N       25.79607949      15.32009515      14.12516473       0.01809851       0.00657843      -0.00091583
C       24.66291254      15.26789578      13.30920764      -0.00125573      -0.01929870       0.04225454
O       23.57562190      14.85511092      13.76679320       0.00857206       0.01452776       0.01711121
C       24.84353695      15.70800161      11.92653284      -0.00016764      -0.01405417       0.03307313
C       23.65683188      15.68216752      11.00055041       0.01091485      -0.00810720       0.00101507
C       26.08367802      16.10509229      11.54223489      -0.02064853      -0.00127064      -0.01897320
H       26.29579119      16.44185975      10.53343410       0.01310954       0.01201734      -0.03220153
H       23.27271845      14.66126438      10.89416369      -0.01089994      -0.01328078       0.00329975
H       23.92237333      16.05649078      10.00806299      -0.00118734       0.00879369      -0.02861021
H       22.83536404      16.28977840      11.39666458       0.00754670      -0.00278605       0.01719657
H       25.69606533      15.03756544      15.14214639      -0.03074937      -0.00087418      -0.03826007
N       28.89340631      12.64730589      13.31012691       0.00144599      -0.00133646       0.00815400
C       28.13972119      12.83933231      12.16203997      -0.02435143      -0.00718572      -0.00809898
N       26.85096394      12.60926469      12.34745356      -0.03116332      -0.00021957      -0.06114752
C       26.75166217      12.25459963      13.68885294      -0.00984887       0.00002314      -0.02270541
C       25.64568112      11.91311360      14.50389342      -0.01553204      -0.00483110       0.00192936
N       24.37357517      11.83822672      14.04695577       0.00315474      -0.03265096      -0.00560089
N       25.89918903      11.63927210      15.81129908      -0.01264777      -0.01282312       0.01911564
C       27.16693929      11.70721675      16.28182414      -0.01038623      -0.00070860       0.00160745
N       28.27906068      12.01557170      15.59964377       0.01419506      -0.00478379       0.04739623
C       28.00990562      12.28220178      14.31174805       0.00408600      -0.00209082       0.01911924
H       28.59397681      13.13378317      11.22521222      -0.00295523       0.01036515       0.00800025
H       24.16348927      12.24424811      13.14482338       0.00797351       0.01053278      -0.00309304
H       23.60350978      11.69737165      14.70989322       0.00263744       0.01858908       0.00944778
H       27.27270596      11.50097880      17.34476242      -0.00643856      -0.00552324      -0.01961958
C       11.00574900      12.90070573      17.70184906       0.02173611       0.00512832      -0.01714875
C       10.95831332      12.87829230      19.08657164      -0.01606271      -0.00542040      -0.01109534
C       12.13755373      12.79540353      19.85797726      -0.00666533      -0.02150831      -0.00823987
C       13.36324137      12.78375470      19.22816712      -0.00788917      -0.00818691       0.00061552
C       13.46022733      12.82787886      17.80918536       0.00845790       0.00493498      -0.00125470
C       14.71898880      12.88727569      17.16307890      -0.00323291       0.00672292      -0.01181782
C       14.74390443      12.94869076      15.78968923       0.00483882      -0.06584081      -0.01690192
N       15.81250006      13.04140163      14.91539358      -0.01401714      -0.06615038      -0.00942515
C       15.34440196      12.98927666      13.60513477       0.03967161      -0.01303652      -0.03238665
C       16.07880746      13.04122602      12.41955836      -0.07500526      -0.01110614      -0.00068391
C       15.37770577      12.97946588      11.21745597       0.02447588      -0.02409381       0.02008752
C       13.97136393      12.86838797      11.19330080      -0.01512889      -0.02264525       0.02250384
C       13.23765737      12.81228361      12.36951034       0.00256442       0.02349988       0.02860661
C       13.91583436      12.86162040      13.61467599      -0.00200495       0.02456741       0.01251202
C       13.53931557      12.85156819      15.00274965       0.03278722       0.04741732       0.02727838
N       12.32663808      12.77951461      15.62896220       0.01249145       0.02820346       0.01228885
C       12.24602639      12.83411605      17.03033584      -0.00014758       0.00991829       0.00781358
C       11.10203817      12.66197024      14.79031031       0.02188626      -0.02697550       0.00712710
H       10.07549119      12.98979560      17.15753188       0.00652649      -0.02296767      -0.01249248
H        9.99430422      12.92480403      19.58243848      -0.00969152       0.01226211      -0.00165579
H       12.07397060      12.75196373      20.94016627       0.01087371       0.02008597       0.00096262
H       14.27957143      12.74039188      19.80937405       0.01319490       0.03215730      -0.01637999
H       15.63550270      12.89039016      17.74739519      -0.03315284       0.02545392      -0.00137348
H       16.77349407      13.21438544      15.18580344      -0.01271976      -0.07252363      -0.00674863
H       17.15942162      13.12651050      12.43139386       0.04928239       0.01097913       0.02622217
H       15.92549886      13.01551645      10.28084463      -0.00082532       0.00295471       0.01048239
H       13.45552398      12.81918145      10.24017707       0.00312852       0.02357033      -0.00035018
H       12.16045796      12.74078123      12.30816260      -0.01051067       0.00413433       0.03032051
H       11.29222133      11.94312870      13.99482648       0.02639906      -0.00171853       0.00384997
H       10.27544329      12.28059500      15.38228865       0.01009004       0.03090929      -0.00095594
H       10.84594045      13.63788710      14.36450607      -0.00720783      -0.05488637       0.02840555
H       23.59227446      10.64356386      20.86667853       0.00975065       0.00819771      -0.01776427
H       29.87779116      12.84403979      13.44428525       0.03090878       0.00539880      -0.00243124
H       26.05474305      14.22081226      21.58676973       0.02026184       0.00606780       0.00863017
H       28.08688462      16.38236871      12.08971667      -0.03769546      -0.02321244       0.02551820
91
Lattice="39.87907478 0.0 0.0 0.0 26.44648255 0.0 0.0 0.0 31.9384511" Properties=species:S:1:pos:R:3:forces:R:3 energy=-12181.84573955042 pbc="F F F"
N       22.20323447      10.30871418      19.88147121      -0.00591200      -0.00211139      -0.01521013
C       23.23317640      10.46508724      18.93579444      -0.02070252      -0.01255007       0.01082177
O       24.40590584      10.21561324      19.20123158       0.01339442      -0.02039348       0.00169487
N       22.78823644      10.91793324      17.70194248       0.00577470       0.00148147       0.00606986
C       21.51297320      11.40391539      17.42127377      -0.03381824       0.01604214      -0.00162545
O       21.26020582      11.91433260      16.30628723      -0.01188930      -0.00023089       0.02733854
C       20.52161848      11.29551210      18.49495666       0.03076222       0.00624572       0.02650602
C       19.15070803      11.86882952      18.25602081      -0.03337395      -0.00410348       0.00163676
C       20.91124084      10.74543634      19.67163672      -0.00300871      -0.00492212      -0.00659642
H       20.23871315      10.63606007      20.51666884      -0.00176738       0.00117808       0.00923232
H       19.22762889      12.93125241      17.99386281       0.00063146       0.00171390       0.01052250
H       18.52500651      11.77557965      19.14994180      -0.02128874      -0.01401868      -0.01217777
H       18.65353688      11.36427130      17.41752391      -0.00637685      -0.01738066      -0.00339231
H       23.55778042      11.09734604      16.99184978      -0.01122904       0.00201677       0.01438995
N       24.94595590      13.56891372      20.33749724       0.00497920       0.01339339      -0.00067260
C       23.57592360      13.37390632      20.42398489      -0.00643804      -0.01201837      -0.00032859
N       22.93910958      13.66494843      19.30333338       0.00409063      -0.00081195       0.01079401
C       23.94722312      14.07417131      18.42887919      -0.00627606      -0.01393332      -0.00637994
C       23.92754007      14.50913500      17.08084931      -0.00156375      -0.02414266       0.01300927
N       22.79556165      14.61349210      16.34144438       0.00044069       0.00854789      -0.01332654
N       25.11736138      14.86144833      16.52467088      -0.00475088       0.00732096      -0.00760995
C       26.25734027      14.77317658      17.24986375      -0.00288015       0.00245180      -0.01065002
N       26.39134083      14.35493100      18.51708070       0.00037075       0.00351521      -0.00532938
C       25.20498079      14.02173796      19.05321124       0.00840391       0.00299996      -0.01027002
H       23.11102547      13.01579580      21.33236950      -0.00230885      -0.00209853       0.00354041
H       21.99079641      14.07241748      16.63660619      -0.00242764       0.01503221       0.01122081
H       22.89456000      14.77902590      15.33291828      -0.00711476       0.00252071      -0.01802703
H       27.16004094      15.07618768      16.72480016      -0.01007255      -0.01270639      -0.01036669
N       26.68832116      16.49613171      12.11899328      -0.01062791       0.00682165       0.00240912
C       26.60070503      16.12400101      13.46950660      -0.01140284       0.01095701      -0.01468409
O       27.57406370      16.13922565      14.22188579      -0.00995428      -0.00496686       0.00762744
N       25.32383509      15.74289212      13.85312344      -0.01022476       0.00671572      -0.00183011
C       24.23453767      15.54451190      13.00578147      -0.00190982       0.00065203       0.00003085
O       23.16143516      15.08183672      13.45598792       0.01366130      -0.00784341       0.00223583
C       24.42417955      15.89892894      11.60158135      -0.01525487       0.00112563       0.00349464
C       23.27776077      15.68937182      10.64943265      -0.00704739       0.00677126      -0.01071173
C       25.63937306      16.36975704      11.22576612       0.01375849       0.00402583      -0.00854892
H       25.85911895      16.66067699      10.20340590       0.01681296      -0.00754310      -0.00102587
H       23.00581649      14.62776328      10.60606133       0.00006016       0.00680417       0.00581429
H       23.53269488      16.02139873       9.63849601       0.00171698       0.00931614       0.00016969
H       22.38700271      16.23158878      10.98583708      -0.00001800      -0.00056976      -0.00240861
H       25.22980468      15.42467747      14.85739159       0.00863068       0.00795294      -0.00507896
N       28.15003859      12.67819923      13.84135311      -0.00894127       0.01317639      -0.00681394
C       27.49858089      13.08619753      12.68651815       0.03028297       0.01268017       0.00995943
N       26.18866017      12.92916677      12.74944596      -0.03971995      -0.01671731       0.00365662
C       25.96287993      12.39462086      14.01797856       0.03592603       0.01751178       0.00244820
C       24.78754100      12.01346021      14.70819996      -0.02782037       0.01167230      -0.00595005
N       23.53454317      12.11501560      14.18644346       0.01215926       0.00164653      -0.00557827
N       24.93316304      11.50133937      15.95975578      -0.00700986       0.00181674      -0.00332187
C       26.16863067      11.38994042      16.50518564       0.00421044      -0.02000010      -0.00093588
N       27.33903548      11.73729553      15.95383150      -0.00135394      -0.01007050      -0.01790311
C       27.17466398      12.23020865      14.71465574      -0.02067270      -0.00025968      -0.01816896
H       28.04079920      13.49491029      11.84525240      -0.00250888      -0.00111483      -0.01627046
H       23.40692874      12.76915153      13.42153255      -0.00257213       0.01516385      -0.00148353
H       22.75062349      12.03044333      14.83703757      -0.01288740      -0.00911970       0.00107472
H       26.19044253      10.98417404      17.51366897      -0.01053741      -0.00173704      -0.01806406
C       11.19928975      12.92822523      17.82973299      -0.00250785       0.00762795      -0.00612900
C       11.18193535      12.94201858      19.21508563       0.00058004      -0.00181263      -0.01868729
C       12.37867712      12.85312722      19.96007463       0.02206161       0.00978768       0.02371483
C       13.58482888      12.76366470      19.29850167       0.01256498      -0.00750042       0.00833037
C       13.65250068      12.75291722      17.87902050      -0.00357383       0.00872015       0.01029881
C       14.89855113      12.69293200      17.20814047      -0.01454987       0.00832626      -0.01254801
C       14.90150211      12.74437843      15.83460368       0.00593154      -0.00857617       0.00016661
N       15.95859254      12.73677509      14.94139603      -0.02466048       0.02752160       0.01208881
C       15.46535421      12.82129554      13.64421962      -0.00036972      -0.01262617      -0.00455754
C       16.18105564      12.86432574      12.44707496       0.02541639      -0.02197265       0.00775136
C       15.45275700      12.95162392      11.26467045      -0.00039184      -0.00974808       0.01674405
C       14.04107912      13.01624904      11.27016764       0.01033275      -0.00747420       0.00770200
C       13.32759232      12.98381170      12.45926866       0.00287244       0.00198849       0.01154528
C       14.03131428      12.86852713      13.68340890       0.00706642      -0.00022626       0.00507330
C       13.67858280      12.80988777      15.07679588       0.02011220      -0.00303904      -0.00881888
N       12.47671003      12.79128503      15.72684486      -0.01321907      -0.00108706       0.00341597
C       12.42344032      12.81982433      17.12987499       0.00685405       0.01463678      -0.00214070
C       11.22747760      12.73118801      14.92065600       0.00346173       0.00408651       0.00307555
H       10.26151540      13.02879912      17.30043373      -0.00281793      -0.00293980      -0.00076619
H       10.23121953      13.02999216      19.73124755       0.00067929       0.00598039      -0.00768349
H       12.34580896      12.85299850      21.04471073      -0.00095748       0.02496953      -0.01073590
H       14.51532502      12.70421878      19.85550923      -0.00350184       0.00476477       0.01009981
H       15.82287664      12.62312415      17.77447439       0.00323959       0.00768554       0.00703145
H       16.93834136      12.73584594      15.19990729       0.01069990      -0.01276707      -0.00894024
H       17.26553308      12.82847424      12.44246808       0.01210373      -0.00002263      -0.00282513
H       15.98038122      12.99002516      10.31661036       0.00484447      -0.02160138       0.01079555
H       13.50700048      13.09747917      10.32934692       0.01073898       0.01307252      -0.00006736
H       12.24880777      13.06209574      12.42993377       0.00519826       0.00061861       0.00118168
H       11.40505738      12.09665595      14.05545581       0.00372090      -0.01722228      -0.01515151
H       10.42781794      12.28174626      15.50304880       0.01861787      -0.01112311       0.00622927
H       10.93390534      13.73512350      14.60062698       0.00568728      -0.00657328      -0.00161928
H       22.49404342       9.94409268      20.78121956       0.00845842      -0.00392505       0.01341653
H       29.13684582      12.76260361      14.05657031       0.00550422       0.00072916      -0.01171240
H       25.64529400      13.37733395      21.04590454      -0.00750762      -0.00452051      -0.00330438
H       27.59893517      16.82023670      11.81269334      -0.00153392      -0.00382477       0.01443417
91
Lattice="39.87907478 0.0 0.0 0.0 26.44648255 0.0 0.0 0.0 31.9384511" Properties=species:S:1:pos:R:3:forces:R:3 energy=-12182.0418096871 pbc="F F F"
N       21.78845445      10.09457341      19.83842090       0.00162134      -0.01218652      -0.00793545
C       22.69727021      10.57564883      18.87980349      -0.02052615       0.00647764       0.00910582
O       23.91012830      10.48429693      19.04192880       0.02450364       0.02643814      -0.00638816
N       22.08832616      11.14561128      17.76997028      -0.00964112       0.01551609      -0.02298926
C       20.72781117      11.38629557      17.60919870       0.02645408      -0.01893206       0.04367122
O       20.29920931      12.01681313      16.61186319      -0.02343252      -0.00682885      -0.02457872
C       19.85362202      10.85222803      18.65591575       0.01598609       0.00015581       0.01935269
C       18.37082373      11.05196305      18.51915227      -0.01635787      -0.02480755      -0.00237930
C       20.42407441      10.22686422      19.71883460      -0.01410353       0.01158128      -0.00940818
H       19.84374476       9.80587805      20.53370229      -0.03343514       0.01010546      -0.00071425
H       18.13997646      12.12374105      18.53525797      -0.00939173       0.04116696      -0.00778890
H       17.81907924      10.56527145      19.32962718       0.00990235       0.01092873       0.00442230
H       18.00691789      10.64921426      17.56637974      -0.01813091       0.00137503      -0.00666636
H       22.76758501      11.48205205      17.02032951      -0.00855406      -0.01697391       0.00255259
N       24.86365376      13.65975246      20.28982923      -0.00448452       0.00185068       0.00659488
C       23.49633590      13.45748908      20.41098218      -0.00364840      -0.00692552       0.00788969
N       22.82402240      13.79612677      19.32610158       0.00011621      -0.00545382      -0.02202561
C       23.80534201      14.24076232      18.43761203      -0.00758938       0.00300665      -0.00343962
C       23.74660459      14.71639298      17.10686403       0.00230474       0.00153701       0.00728805
N       22.59257524      14.83011761      16.39770105      -0.01680936       0.01999958       0.01141159
N       24.91874948      15.08000338      16.52205209      -0.00819719      -0.00013061       0.00144496
C       26.08386891      14.96288793      17.20622019       0.00400681      -0.00382426      -0.00197512
N       26.25436063      14.50861648      18.45398115      -0.00546205       0.00568162       0.02627616
C       25.08290200      14.16353202      19.01775108       0.00312029       0.00411325       0.00878083
H       23.06129223      13.05904229      21.31778456       0.00330541       0.00150358      -0.00071991
H       21.77703035      14.33320071      16.73779903       0.00579527       0.02005666       0.01179417
H       22.65898711      15.02574845      15.39378100       0.00725925      -0.00399549      -0.00296345
H       26.97158958      15.26322951      16.65539281      -0.00106187       0.01422540      -0.00751174
N       26.60164010      16.48709489      12.07544823      -0.00507793       0.00455857       0.02131239
C       26.50111247      16.16211103      13.43861169       0.03325568      -0.00657997       0.01461261
O       27.47527966      16.17872529      14.19057497      -0.02189603       0.01558911      -0.00204506
N       25.21131997      15.82326204      13.82570993       0.00573665       0.00779404      -0.00495863
C       24.09405824      15.70632724      12.99558680       0.01675639       0.00950434       0.00223275
O       22.99388222      15.34912548      13.46883719      -0.00565180       0.02213617       0.00497817
C       24.29952809      16.02357607      11.57993585       0.00012958      -0.03338783       0.01441720
C       23.13900746      15.84083033      10.64133780      -0.00849544      -0.00882094       0.04218923
C       25.53836382      16.41413815      11.18996420       0.00849081      -0.00192730      -0.01310286
H       25.77354534      16.66914603      10.16061652      -0.00994657      -0.00226720       0.02009266
H       22.84978512      14.78339957      10.61009583      -0.00106701      -0.00365302       0.00734976
H       23.39389220      16.15898557       9.62560447      -0.00803058       0.00922101       0.00056410
H       22.26219988      16.40327165      10.97966817       0.01631982       0.01477819       0.01407833
H       25.08494710      15.56623042      14.84477470      -0.00554381      -0.00506559      -0.00093537
N       27.06577105      12.66900070      13.38631196       0.01715492       0.01362171       0.00734410
C       26.32286134      12.98662060      12.25687765      -0.00904566       0.00033527      -0.01237523
N       25.02101932      12.88502084      12.44942069      -0.00589657      -0.00429734      -0.03164411
C       24.89620209      12.48773961      13.77977002      -0.00042372      -0.00639073      -0.03158395
C       23.77577593      12.24915591      14.60563507       0.01326072      -0.01458844      -0.03094991
N       22.48551221      12.40439467      14.18195621       0.02896965      -0.08433682      -0.01951365
N       24.01343346      11.83217984      15.87412647      -0.03805644      -0.02250538      -0.01094416
C       25.28934751      11.70588591      16.31964851       0.04578364      -0.03034622       0.00163676
N       26.41488716      11.95611793      15.64133894       0.01873666       0.01441206      -0.00967146
C       26.15973171      12.33939763      14.37953141      -0.00780998       0.01351475       0.00411788
H       26.79699611      13.28940914      11.33345361      -0.00219726      -0.00328536      -0.01297790
H       22.34759866      13.06634432      13.42416439       0.01285037       0.00384843       0.00569911
H       21.76401383      12.38115083      14.90117198      -0.01321959      -0.00007816       0.00702425
H       25.38664958      11.37689924      17.34907646      -0.01260869      -0.00317480       0.01246368
C       11.58124051      13.26770235      17.69922919       0.00567751       0.01205539       0.01509083
C       11.39208243      13.40977610      19.06435583       0.01765834       0.00394150      -0.02764245
C       12.47919163      13.33301809      19.96272245       0.00057593      -0.00046691       0.01003604
C       13.75114351      13.13117008      19.47574425       0.01146198       0.01077601      -0.00862605
C       13.99315704      12.98564876      18.08274252       0.00808869      -0.00376255       0.00927397
C       15.30529777      12.79544170      17.58942072      -0.00658357      -0.00724588      -0.02286534
C       15.49003010      12.69217705      16.23142045       0.00597370       0.00631926       0.01767736
N       16.64643486      12.52863729      15.48990144      -0.01468409       0.00627606       0.02115350
C       16.31986711      12.50887382      14.13805569       0.01015123      -0.00713430      -0.01784397
C       17.17450340      12.38760806      13.03866304      -0.00044943       0.00103256       0.01996205
C       16.60344337      12.43284877      11.76964291      -0.00064792      -0.00503319       0.00572070
C       15.21197056      12.60899419      11.58953034       0.01759406      -0.00898138       0.00435185
C       14.35980273      12.72369752      12.67676209       0.00664219       0.00528259      -0.00183423
C       14.89929237      12.65580323      13.98497410       0.01590587       0.00464033       0.00760892
C       14.37438806      12.75184306      15.31833052       0.02613989       0.00338306       0.00217258
N       13.10313957      12.86596722      15.80531081       0.00791540      -0.00858646      -0.02099512
C       12.87566796      13.03769353      17.17788321       0.01401406       0.00414462       0.00831855
C       11.95461460      12.77102688      14.86368021       0.00198901      -0.00460690      -0.00454931
H       10.72290987      13.36052082      17.04722067       0.01279844       0.00043297      -0.00811543
H       10.39241189      13.59093880      19.44503427      -0.01535926       0.00414462      -0.01040628
H       12.31293881      13.44136908      21.02929551      -0.01500496       0.00804910      -0.00200649
H       14.60021161      13.08654664      20.15147330      -0.00346122      -0.00267600       0.00758321
H       16.13947409      12.74472717      18.27917639       0.01110871      -0.00026071       0.00190982
H       17.59012141      12.46210313      15.86786588       0.01837979      -0.01089994       0.01512632
H       18.24437225      12.27153172      13.17510394       0.01604883      -0.00741403       0.00593154
H       17.24230143      12.34282904      10.89674172       0.01005250       0.00079447       0.00610380
H       14.80611898      12.66387964      10.58507504       0.01184302      -0.00575259      -0.00680828
H       13.30304362      12.88318498      12.50672354       0.00817971       0.00285238      -0.00304059
H       12.22148159      12.09374914      14.05673815       0.00844967      -0.01717137      -0.01084749
H       11.09432181      12.35169964      15.37887934      -0.00624881      -0.01505330      -0.00234228
H       11.70377821      13.75770094      14.46435073       0.01433801       0.00074253      -0.00355686
H       22.20841593       9.63185635      20.63697477      -0.01106500      -0.00096725       0.01988131
H       28.07142350      12.72550247      13.50452867      -0.00904771       0.00607912      -0.01112105
H       25.58437366      13.43833615      20.96709091      -0.00268680      -0.00188616       0.00229240
H       27.51745821      16.79603820      11.76884452       0.00391836      -0.00945960       0.00052142
91
Lattice="39.87907478 0.0 0.0 0.0 26.44648255 0.0 0.0 0.0 31.9384511" Properties=species:S:1:pos:R:3:forces:R:3 energy=-12182.458852411075 pbc="F F F"
N       19.82294633      10.45878303      20.06056127       0.00227851       0.00317943       0.01816022
C       20.80772546      11.05423467      19.25083389       0.00126704       0.01106037      -0.00606266
O       21.95891783      11.22945788      19.63898411      -0.00580761      -0.00055690      -0.00879574