91
Lattice="34.26451804001258 0.0 0.0 0.0 27.64983074246159 0.0 0.0 0.0 31.5119227311255" Properties=species:S:1:pos:R:3:forces:R:3 energy=-12182.396857591353 free_energy=-12182.396857591353 pbc="F F F"
N       19.12194483      11.27254071      19.89428029       0.00269040      -0.00570271      -0.00620562
C       18.11124914      11.41192108      18.97163138       0.00697952       0.00113591      -0.00771948
N       18.55775927      11.49563388      17.72426524       0.00147376      -0.00691678      -0.00782490
C       19.95134805      11.39136350      17.84337130       0.00262870      -0.00140074      -0.00678771
C       21.01158006      11.33524193      16.89814962       0.00921741       0.00843116      -0.00622207
N       20.84187383      11.31785423      15.56333907       0.00759144      -0.00989361      -0.00848875
N       22.27645888      11.27954912      17.39772926       0.00822959      -0.01047159       0.00751893
C       22.48646576      11.24573735      18.73068926       0.00379803      -0.04365116      -0.00612591
N       21.56012632      11.21914816      19.70252628       0.00164499       0.00808355       0.00226257
C       20.31974500      11.28019665      19.19358686       0.00312852      -0.00356098      -0.00904000
H       17.07440023      11.42088630      19.27051077       0.00585132      -0.01161984      -0.00552941
H       19.93664851      11.52785156      15.17076485       0.00139971       0.00621076      -0.00271817
H       21.65986656      11.30387365      14.93516217       0.01065260      -0.00028179      -0.01130926
H       23.52945357      11.25591251      19.03567195       0.01021756       0.00647455       0.00490978
N       21.46771309      14.63653468      21.00284660       0.01824198      -0.00560501      -0.00530573
C       20.08295095      14.60000569      20.91001564       0.01483270      -0.00004834       0.02080537
N       19.64861433      14.57212721      19.66215433       0.00273514       0.00032653       0.02223747
C       20.81342613      14.59326124      18.89426140      -0.01147072       0.00088857      -0.00446344
C       21.03475242      14.54889054      17.50034881      -0.00241735      -0.00783827      -0.00390088
N       20.02806405      14.50006011      16.58973313      -0.00171698      -0.01384385      -0.01091999
N       22.32132930      14.54487019      17.06783514      -0.00207334      -0.00469895      -0.00078007
C       23.33771240      14.58435957      17.96555074      -0.00880963      -0.00368439       0.00478174
N       23.23876217      14.62748565      19.30208067      -0.00340620       0.00086749      -0.00197255
C       21.95783540      14.62848773      19.70715889      -0.00151129       0.00076002      -0.01137816
H       19.45581918      14.61005575      21.79112292      -0.00464290      -0.00286627       0.02360581
H       19.08491561      14.38304262      16.93352374      -0.00664579       0.01102386      -0.00504810
H       20.24291913      14.29824225      15.60627260      -0.02105631      -0.01089274      -0.01085623
H       24.33720023      14.55738185      17.54104336      -0.02149134       0.00987252      -0.00460176
N       24.55710707      14.63184951      12.67507901      -0.00090863      -0.01615579      -0.00452257
C       24.26849520      14.66742711      14.04671101      -0.00456114       0.00730245      -0.01270999
O       25.12690551      14.90242278      14.89652062       0.00625652       0.00570014       0.00154009
N       22.93551259      14.40428945      14.33451113       0.00641233      -0.01665509       0.00314292
C       21.94257010      14.03145542      13.42556405       0.00373890       0.00536024       0.00024631
O       20.77533652      13.80191994      13.82013219      -0.00880706       0.00437910      -0.00262767
C       22.35391829      13.93550706      12.02608789      -0.01081817       0.00200803       0.00160077
C       21.34880652      13.47401653      11.00578681      -0.00721194       0.00152415       0.00022060
C       23.63668390      14.25481534      11.71598215      -0.01130720      -0.00245180      -0.00256288
H       24.01455554      14.21903057      10.69929838      -0.00363040       0.00676354      -0.00184245
H       21.00667981      12.45908314      11.24117869      -0.00226309       0.00258653       0.00535612
H       21.77957428      13.46875630       9.99991586      -0.01130977       0.00049879      -0.00244615
H       20.46518678      14.12194779      11.00521729      -0.00665762      -0.00116420       0.00579835
H       22.68660071      14.44972650      15.36342587      -0.00374147      -0.01214332      -0.00316914
N       26.78357413      12.10411196      15.41072370      -0.02071229       0.00621539      -0.03169193
C       25.69292814      12.07940435      16.29381589       0.00230062       0.04502105      -0.05327892
O       25.78668462      12.37184515      17.48183261       0.00774262      -0.02860250       0.04015086
N       24.50591941      11.68922809      15.68383878       0.00589554      -0.02786459       0.00685302
C       24.31400928      11.39306238      14.33430434       0.02932343       0.00012033       0.00403612
O       23.17115150      11.13336853      13.89858560       0.00689107      -0.01017077      -0.00009565
C       25.50523360      11.43222985      13.49031591      -0.01113802      -0.01814736      -0.02448565
C       25.36369790      11.06151272      12.03670054       0.01089222       0.00794214      -0.00474934
C       26.67819848      11.80446852      14.06737310       0.00580041       0.01763314      -0.00722480
H       27.59878300      11.88473364      13.49704276       0.01429328      -0.00773851       0.03085941
H       25.10140030      10.00225733      11.92499883       0.00361651       0.01385722       0.02048604
H       26.29158463      11.24515786      11.48635998       0.00700317       0.00124441      -0.00845636
H       24.55195800      11.62939598      11.56999127       0.01033069       0.01353069       0.01071584
H       23.67964659      11.58964089      16.32218229      -0.00285187      -0.00685868      -0.00012290
C       11.24480294      12.17242539      18.01545517      -0.00147993       0.01235724      -0.00074151
C       11.00488153      12.16723578      19.38010932      -0.00317583       0.00125881      -0.00300151
C       12.04643167      12.39434993      20.30770140      -0.00645090       0.03860974      -0.00769634
C       13.33189950      12.59175565      19.85251889      -0.00545280      -0.00335786       0.00398881
C       13.62918499      12.57003386      18.46164887      -0.00322828       0.00481773       0.00385203
C       14.95821416      12.69700643      17.99552461      -0.00168356       0.00284570       0.00447115
C       15.20393446      12.55945946      16.65106689       0.00062838       0.00278193       0.00552170
N       16.40592471      12.56943528      15.96812031       0.00317326      -0.00038824       0.00713995
C       16.13389259      12.46567905      14.60723673       0.00602872      -0.00022214       0.00434928
C       17.04244325      12.44218571      13.54356122       0.00643599       0.00226051       0.00397338
C       16.52399530      12.34486896      12.25509556       0.00523425      -0.00140074       0.00486710
C       15.13172769      12.26967811      12.01797073       0.00531396      -0.00300305       0.00369210
C       14.22523405      12.29987653      13.06645240       0.00643496      -0.00901017       0.00506096
C       14.71171125      12.40987276      14.39240703       0.00562866      -0.00171081       0.00438373
C       14.12291609      12.45521031      15.70198254       0.00303596      -0.00073276       0.00402223
N       12.83070970      12.43871202      16.14810682       0.00204917       0.00351161       0.00182291
C       12.55255849      12.39136226      17.52429120      -0.00114311       0.01097913       0.00025300
C       11.71546420      12.49682984      15.16529671       0.00482596       0.00189645      -0.00173395
H       10.42245686      11.97304918      17.34078262       0.00089834       0.00600661      -0.00214687
H        9.99906288      11.97430970      19.73913513      -0.00680777       0.01313680      -0.00563072
H       11.83515992      12.39375275      21.37178099      -0.01048290       0.01126812       0.00009256
H       14.14908416      12.74699375      20.55099947      -0.00660825       0.00467221       0.00503473
H       15.76303646      12.90129279      18.69206547      -0.00137914      -0.00655477       0.00638096
H       17.29063515      12.27483444      16.43293454       0.00437088       0.00487224       0.00575773
H       18.11180024      12.53360217      13.70945178       0.00779404       0.00190827       0.00996971
H       17.20540238      12.33248001      11.41013271       0.00959124       0.00307093       0.00860651
H       14.76774224      12.19061757      10.99885130       0.01083206      -0.00760944       0.00299019
H       13.16611486      12.23015287      12.85407857       0.00848875      -0.01438327      -0.00067054
H       12.03037731      13.10300787      14.31898532       0.00650335       0.00443258      -0.00008947
H       11.44529939      11.49144959      14.83000944       0.00893510       0.00127218      -0.00465781
H       10.85453014      12.98141724      15.62065700       0.00109786      -0.00099810      -0.00536846
H       19.03210488      11.24116084      20.90307389       0.00691781      -0.00985504      -0.00459045
H       27.64743061      12.46656801      15.79713028       0.02400793      -0.00275159       0.02815050
H       22.03178740      14.64407645      21.84497408       0.00407160      -0.00883637       0.00870781
H       25.52114986      14.82400029      12.42781618      -0.00017895      -0.00759093       0.00040623
91
Lattice="34.26451804001258 0.0 0.0 0.0 27.64983074246159 0.0 0.0 0.0 31.5119227311255" Properties=species:S:1:pos:R:3:forces:R:3 energy=-12182.732359322323 pbc="F F F"
N       17.39382260      10.99074263      20.12219675      -0.00719035      -0.01577526      -0.03539998
C       16.34957744      10.80819915      19.22253309      -0.01760332       0.00249860       0.01295888
N       16.72158211      10.96196593      17.96504902      -0.02074058      -0.01406394      -0.00261018
C       18.08523939      11.24870685      18.03802877       0.00318971      -0.00957222      -0.00703505
C       19.06394372      11.48673941      17.04480335       0.00277114      -0.00770148      -0.00492109
N       18.79784605      11.50679183      15.71395574       0.01076624      -0.01000211       0.00522808
N       20.33003254      11.73460291      17.46761791      -0.00227028       0.01000931      -0.00265955
C       20.61989936      11.73369909      18.78768466      -0.01163476      -0.01411176      -0.00530316
N       19.77602514      11.50789034      19.80975952       0.00329410      -0.01779666      -0.02135044
C       18.52763106      11.26905209      19.37155248      -0.00054250      -0.02102648       0.01181988
H       15.34640097      10.57942014      19.55581352      -0.00895104      -0.01100689       0.00267755
H       17.91374459      11.12384399      15.40544616      -0.00777450      -0.01812885      -0.00950126
H       19.57385557      11.56997439      15.03540520      -0.00153495      -0.00563123       0.00225640
H       21.65430008      11.96256418      19.03081932      -0.00111432      -0.04476702       0.00233713
N       19.83704597      14.62752285      21.00130545      -0.00231656       0.02621446       0.01797098
C       18.45762177      14.58765480      20.87860153      -0.00416416       0.01880196       0.00408703
N       18.04059919      14.73450265      19.63159977      -0.00389265      -0.02585707      -0.00463776
C       19.21926129      14.86612831      18.89332074      -0.00834015      -0.02477978      -0.00848464
C       19.47027076      15.00582842      17.51694304       0.00213402       0.00056153      -0.00615316
N       18.45203636      15.09612701      16.58682481      -0.00321439      -0.01159568      -0.01650186
N       20.75484142      15.00074853      17.09682105      -0.04107440      -0.02463991       0.00785318
C       21.75811982      14.89246095      18.00601056      -0.01461209       0.03474486       0.01484555
N       21.63498691      14.80796247      19.33844960      -0.02077400      -0.00385923      -0.00741198
C       20.35055030      14.78683160      19.72588697      -0.01230016       0.00979899      -0.00789740
H       17.81860435      14.45502177      21.74148064      -0.00487841      -0.00046280      -0.00637325
H       17.62474574      15.59028543      16.90785768       0.01944423       0.01837002       0.00200238
H       18.74168736      15.28656681      15.61582148      -0.00510364       0.00061192      -0.01113031
H       22.76167824      14.86323896      17.59374232       0.00837100       0.01618098       0.00444904
N       23.07859397      15.19612423      12.67511904      -0.00079344       0.01014866      -0.01147689
C       22.80732689      15.15004696      14.04940396      -0.01633165       0.00103975      -0.00765880
O       23.69599838      15.14436598      14.89957843      -0.01569864      -0.04847507       0.01916912
N       21.44954775      15.10024750      14.33799985       0.00436265      -0.01175148      -0.02517264
C       20.40273770      15.03245263      13.41570037       0.01634656      -0.00286421      -0.00442178
O       19.21617570      14.99816431      13.81246098       0.01950233       0.00904926      -0.00577110
C       20.78054366      15.01266588      12.00399637       0.00900915      -0.02040530       0.00373478
C       19.69194492      14.88374806      10.97066050       0.00476734       0.00377335       0.00613877
C       22.10187756      15.10936810      11.70084110      -0.00857874       0.02340321      -0.00091943
H       22.46973752      15.11970087      10.67948171      -0.03547300      -0.00024528       0.00091531
H       19.17584377      13.92065487      11.07049679       0.02069841       0.00722069       0.00664116
H       20.09389417      14.95520374       9.95573904       0.00247906      -0.00074819       0.00258602
H       18.93412157      15.66291931      11.10559614       0.00251145       0.00049931      -0.00120122
H       21.20173137      15.06970816      15.36029422      -0.00753282      -0.00360829      -0.00441253
N       24.74153541      12.20103946      15.27522037       0.00234073       0.02097300      -0.00562197
C       23.68659050      12.26654479      16.19484719      -0.00318148      -0.01312703      -0.00535818
O       23.84747362      12.48573078      17.39320932       0.01230684      -0.06042144      -0.02311679
N       22.44277746      12.05005675      15.61192058       0.00211293       0.01334300       0.00088189
C       22.16986134      11.85993373      14.25835309      -0.00989206       0.00782387      -0.00127115
O       20.98879590      11.73046515      13.86368259       0.00386437      -0.00979385      -0.01076521
C       23.32492389      11.84130432      13.36595801       0.00705305      -0.00737598      -0.00284673
C       23.09443892      11.62677763      11.89288448       0.00173292      -0.00346276      -0.01141107
C       24.55348171      12.01872881      13.92146557       0.01319130      -0.00286164      -0.01787482
H       25.45983643      12.02358090      13.32429515       0.01268274      -0.00000051       0.00096982
H       22.60561286      10.66360939      11.70870969       0.00362423      -0.01108814       0.01520396
H       24.03427152      11.65001173      11.33274983       0.01151906       0.00109375       0.00876129
H       22.42505883      12.39396206      11.48858582      -0.00721760       0.00375690       0.01579377
H       21.63996645      12.00481009      16.28749529      -0.00925494       0.01955633       0.00578961
C       11.37473946      12.92678733      18.05826081      -0.02631627       0.01398937      -0.02197008
C       11.24528552      13.04273693      19.43252116       0.02535211      -0.04945003      -0.00343242
C       12.35983819      13.37138905      20.24078357      -0.03831304       0.00769017      -0.03603761
C       13.59507810      13.56196267      19.65889158      -0.01059603       0.01487486       0.00819051
C       13.77573230      13.43802893      18.25246108      -0.00260247       0.00559883       0.00600713
C       15.05670955      13.59445205      17.66982253      -0.00869547       0.00781924      -0.01851092
C       15.17638603      13.38134805      16.31573359      -0.00568162      -0.01215618       0.03152481
N       16.29526038      13.39019759      15.51443040      -0.01458176       0.02476950      -0.01326741
C       15.93452447      13.07082831      14.21707423      -0.01506358      -0.00359132       0.01673891
C       16.76182091      12.94116073      13.09649842       0.00407931      -0.00713481       0.00718212
C       16.15909975      12.56057650      11.90213018      -0.01911872      -0.02212589       0.01163013
C       14.76838199      12.30343070      11.81727338       0.06054331      -0.02772061      -0.03386760
C       13.94630141      12.43790681      12.92502540      -0.02785688      -0.00330901       0.02022070
C       14.51608179      12.84501361      14.15652569      -0.00574847       0.01382688       0.00549805
C       14.03735716      13.06216503      15.49277819      -0.00185737       0.00482339      -0.00926728
N       12.78716365      13.02789513      16.04498025      -0.00701757       0.01394464       0.01510523
C       12.62878227      13.13207401      17.43552034       0.01654916       0.00160334       0.00060884
C       11.60206727      12.94772115      15.14543418       0.01563951       0.01535463      -0.00297322
H       10.50694186      12.64653322      17.47561132      -0.00696049      -0.00174938      -0.01339339
H       10.28002972      12.86140579      19.89301144      -0.02152836       0.01432413      -0.00197718
H       12.23858454      13.46612416      21.31488618      -0.00126241      -0.00039852       0.00467221
H       14.46335908      13.80843498      20.26301421      -0.00047617      -0.00259167      -0.00388339
H       15.91473782      13.84569749      18.28936945       0.01989520       0.00147633      -0.01179417
H       17.24142631      13.60873494      15.84178899       0.01531401      -0.00267189       0.00589760
H       17.82251398      13.15424589      13.17067774      -0.00837820       0.00534892      -0.00480385
H       16.77428792      12.44319502      11.01489970      -0.01402485       0.01640878      -0.00570785
H       14.34475925      11.97883699      10.87267989      -0.00460536       0.01848315      -0.00711784
H       12.89222737      12.20699572      12.83626136      -0.00402069       0.00948737       0.00181931
H       11.84203848      13.46569785      14.21869747      -0.00607655      -0.00526716      -0.00336557
H       11.34423897      11.90515677      14.93859777      -0.00255053       0.00311463       0.00239164
H       10.75756986      13.45502171      15.60692330       0.00217567       0.00260247       0.00971980
H       17.37331068      10.84979258      21.12541922      -0.01139359       0.01449537       0.01868267
H       25.65812171      12.42829499      15.64496200      -0.00255773      -0.00163059       0.02031583
H       20.38495229      14.46020317      21.83818597      -0.00722274      -0.00239524      -0.00261070
H       24.06068732      15.25129016      12.43014491      -0.00150410      -0.01197723      -0.02101826
91
Lattice="34.26451804001258 0.0 0.0 0.0 27.64983074246159 0.0 0.0 0.0 31.5119227311255" Properties=species:S:1:pos:R:3:forces:R:3 energy=-12182.734804950334 pbc="F F F"
N       15.53493643      10.70652635      20.23215300      -0.02292447       0.00798173      -0.00082738
C       14.56192752      10.11231419      19.43492828       0.00146193      -0.01953987      -0.00178589
N       14.90252258      10.04627863      18.16184925      -0.01321701      -0.00925186       0.00209699
C       16.18508965      10.61841494      18.11932203      -0.00164962      -0.01441052      -0.00454622
C       17.11666577      10.84014871      17.06904469      -0.01097141       0.00942875       0.01246728
N       16.89478990      10.48596929      15.78042134      -0.02338264       0.01289460      -0.00365457
N       18.27908423      11.48596056      17.37471273      -0.02391949      -0.00142439      -0.00481362
C       18.52452923      11.85468264      18.65535997      -0.00920661       0.00434414       0.00574025
N       17.72942466      11.68213755      19.72429604      -0.02196442      -0.03404038      -0.01392150
C       16.58698902      11.04698233      19.39711602      -0.01662527       0.00598656      -0.00953108
H       13.63459787       9.74507987      19.85263028      -0.02698836       0.01788819       0.00453080
H       16.09925818       9.89810427      15.56748179       0.01781363      -0.00450252      -0.01205950
H       17.64541327      10.59639274      15.08865084      -0.00690804       0.00262458       0.01228113
H       19.47948141      12.34585592      18.82507215      -0.01943857       0.00817199      -0.00884717
N       18.43049153      15.55174976      21.02136315       0.00362063      -0.00272434       0.00365457
C       17.17817647      16.15508730      21.01652178      -0.00602512      -0.00341854       0.02336979
N       16.76330599      16.47216018      19.80300298      -0.04717409       0.00265338      -0.01127377
C       17.79654949      16.05445676      18.96482861      -0.01562717       0.01471597      -0.01488052
C       17.95276813      16.08709491      17.55805161       0.01840139       0.00127372       0.01808051
N       17.02818768      16.60687216      16.71672691      -0.01528572       0.04704091      -0.01210013
N       19.07008570      15.50463974      17.03458888      -0.00549085       0.01041143      -0.00640925
C       20.01572543      15.00011657      17.87451593      -0.00693838       0.00995994       0.00350287
N       19.97847930      14.95182294      19.21117422      -0.01120333      -0.02047318       0.00571299
C       18.84069282      15.47263334      19.70167740       0.03384703       0.00898138      -0.00860188
H       16.63284348      16.33393735      21.93488268       0.00299739       0.00827998      -0.03424915
H       16.27278643      17.15530885      17.10583604      -0.01962626      -0.00785575       0.01938406
H       17.22289009      16.64719750      15.70869684       0.00560912       0.01976459      -0.00209956
H       20.89138153      14.57497562      17.39703630       0.00913153       0.01426397      -0.01792933
N       21.32301961      15.45866899      12.49741594       0.00610483      -0.00213299      -0.01584468
C       21.10610481      15.39087890      13.87894692      -0.05693143      -0.02353639       0.00982007
O       21.97730686      15.04358771      14.67484293      -0.04924331      -0.00898189      -0.02031480
N       19.81069096      15.73692918      14.24770128       0.00542760      -0.00821159      -0.00292952
C       18.78944399      16.19119511      13.39900095      -0.00680725       0.00654860      -0.00028334
O       17.68520214      16.51765768      13.87320284      -0.00718521       0.01039086       0.00000309
C       19.10614614      16.22535316      11.97107954       0.00816582       0.00754413       0.00200032
C       18.04054570      16.67952973      11.01047308      -0.00342934       0.00516535       0.00223635
C       20.35740415      15.86082279      11.58957230       0.00726028       0.02231358       0.00165476
H       20.67344417      15.86592437      10.55108165       0.00041652       0.01586576       0.00507896
H       17.19664151      15.97942896      11.00306564       0.00148815       0.00043246       0.01744442
H       18.43495799      16.76963655       9.99385968      -0.02091593      -0.01375952       0.00247854
H       17.64348465      17.65137140      11.32193067      -0.02277072       0.00066746      -0.02441108
H       19.58872262      15.68730193      15.27115650      -0.00763361       0.00936242       0.01812885
N       22.83351504      12.23931654      15.13168474      -0.00835043      -0.01673223      -0.00035276
C       21.79506547      12.20300752      16.06808911      -0.01541017      -0.03655183       0.01371992
O       21.93136143      12.55815868      17.23487850       0.01375797      -0.05710626       0.01577269
N       20.59758010      11.72010214      15.54430471      -0.02319341       0.03095300      -0.02031686
C       20.35033630      11.36769027      14.21140662      -0.03410517       0.01210835      -0.01089531
O       19.21070791      10.98630387      13.87221783      -0.08726788       0.01839882      -0.01704282
C       21.47923129      11.50115044      13.28973091      -0.02493199      -0.00046383      -0.00090863
C       21.27642798      11.13972993      11.83945399      -0.00326890      -0.00048645       0.01162190
C       22.66391467      11.93713470      13.79778844      -0.03610600      -0.00621179       0.00509027
H       23.54990583      12.05993615      13.18260269      -0.01479053       0.00427317      -0.01170829
H       20.94751949      10.09965596      11.73899067      -0.00522088      -0.00748551       0.01044536
H       22.19861069      11.26674141      11.26310152      -0.00964524       0.00639999       0.02368500
H       20.49285979      11.75666502      11.38311505      -0.00392967       0.01234284       0.02404290
H       19.80082754      11.63116240      16.20900479      -0.01885287       0.02306691       0.00368645
C       11.81729257      13.21566870      17.98147748       0.00398110       0.00243072      -0.00404280
C       11.67761076      13.32147679      19.35424282       0.00631206      -0.00824553       0.00935162
C       12.78820471      13.60025432      20.18217804       0.00221372       0.00192576       0.00428654
C       14.03791908      13.74527062      19.62153886       0.02229661       0.00823422       0.01008901
C       14.22919480      13.62987622      18.21713486      -0.00783827       0.00706334      -0.00357949
C       15.51670846      13.75644006      17.64946463       0.00749939      -0.00101199       0.01317485
C       15.64681972      13.62718010      16.28908070      -0.00493652      -0.00246723      -0.01408810
N       16.77221849      13.66915318      15.49702550      -0.00403200      -0.03325928      -0.01108711
C       16.41718259      13.43431714      14.18152990      -0.00560603       0.00620202       0.00852321
C       17.25142707      13.29981255      13.07105079       0.00253768       0.00083201      -0.00937116
C       16.65671569      13.01800388      11.84813528       0.00068340      -0.00239987       0.01274136
C       15.25740413      12.85481479      11.72822470       0.03095711       0.00111740      -0.00684839
C       14.42505578      12.96191445      12.83214130       0.00046486       0.01097347       0.01449742
C       14.99183660      13.26915562      14.09322930       0.00127990       0.01341345      -0.03226118
C       14.50828644      13.39014686      15.44128722       0.01462392       0.00475963       0.00945395
N       13.25754832      13.32407833      15.98919445       0.01388859       0.01936041       0.00041703
C       13.08585273      13.38454349      17.37932740      -0.00333883       0.02288693      -0.00099964
C       12.07948490      13.22828787      15.08613689       0.00477145       0.00527230       0.00223275
H       10.94230236      12.98966199      17.38713997       0.00516020      -0.02459106      -0.00768966
H       10.69543424      13.18482616      19.79612363       0.00586417       0.00659848       0.00359286
H       12.64984526      13.69658174      21.25417308       0.01075904       0.00382015       0.00579475
H       14.90695788      13.96292393      20.23392340       0.00202089      -0.00188719       0.00498228
H       16.37465584      13.93608466      18.28612842      -0.00099347      -0.01071482       0.00194170
H       17.71556580      13.81698459      15.84516977       0.00783364      -0.00387105       0.01066545
H       18.32596514      13.36967194      13.17522874      -0.00561066       0.01588839      -0.00534687
H       17.28327556      12.89174441      10.97093042      -0.00070397       0.01290900      -0.00669412
H       14.83053037      12.60250790      10.76250488       0.01269148       0.03483537       0.00399601
H       13.36464003      12.78130132      12.71351580      -0.00325810       0.00676663       0.00176018
H       12.30111537      13.76951546      14.16912587       0.01048342       0.00837511       0.00416005
H       11.84945598      12.18358144      14.85888370       0.02086862      -0.01030241       0.02013431
H       11.21882685      13.70430156      15.54983850       0.00407468       0.00221372       0.01130926
H       15.52116110      10.81948526      21.23964448      -0.02185644       0.01523944      -0.01263080
H       23.68260009      12.69292292      15.45308906      -0.02213771      -0.00651929       0.00388802
H       18.94405489      15.19690062      21.82093229       0.00676200       0.01310389      -0.00442898
H       22.26684054      15.24524356      12.19386750      -0.01411999      -0.01327255      -0.00408703
91
Lattice="34.26451804001258 0.0 0.0 0.0 27.64983074246159 0.0 0.0 0.0 31.5119227311255" Properties=species:S:1:pos:R:3:forces:R:3 energy=-12182.88616030858 pbc="F F F"
N       14.06468462      10.44913677      20.27237064       0.00197306      -0.01397138      -0.00304779
C       12.93214313      10.17947311      19.50962050       0.02306537      -0.00500542      -0.00999285
N       13.16586799      10.21786307      18.21053827       0.02984640      -0.01927402       0.00116111