91
Lattice="37.64154974198568 0.0 0.0 0.0 24.919458563137063 0.0 0.0 0.0 31.845912693730835" Properties=species:S:1:pos:R:3:forces:R:3 energy=-12181.728818400125 free_energy=-12181.728818400125 pbc="F F F"
N       22.51526940      10.24556417      20.54018792       0.00943646      -0.00085155      -0.01285089
C       21.35626916      10.35378241      19.78332438      -0.01668697       0.00488407       0.00594696
N       21.59051760      10.43329868      18.48648716       0.01378780       0.00599787      -0.00465421
C       22.98072718      10.37642322      18.38463828      -0.01880865       0.00211962      -0.01363919
C       23.85605461      10.42510943      17.27211001      -0.01117504       0.01003656      -0.00614442
N       23.42789546      10.50345378      15.99287412       0.01875311       0.01104032       0.01921951
N       25.19203424      10.39983344      17.52821852      -0.00657894       0.01925294      -0.02147180
C       25.63397679      10.32017835      18.80261029       0.00656146       0.00054250      -0.03105636
N       24.89649870      10.24374638      19.92420252      -0.03060127      -0.02083159       0.02552283
C       23.58003615      10.27223880      19.64991911      -0.01798641      -0.00569602      -0.01170829
H       20.37961359      10.37027650      20.24695918      -0.01579377       0.00123104       0.00902046
H       22.43962552      10.62929146      15.82585552      -0.00959433      -0.00753488      -0.02249047
H       24.09531348      10.61877157      15.21730080       0.01071893       0.00048902      -0.02005975
H       26.71452003      10.34921858      18.91563741       0.00035224      -0.00603901       0.01196643
N       24.73841299      13.49625852      21.01890452       0.01322267       0.00056461      -0.00250631
C       23.35067397      13.52905458      21.03207063       0.00406131      -0.00408291       0.03483999
N       22.82275904      13.61244415      19.82470564      -0.01640364      -0.00416467      -0.00260967
C       23.92300014      13.62902508      18.96990895      -0.00583023      -0.00033939      -0.00147067
C       24.03610284      13.68031003      17.55975379       0.02655693      -0.00210265       0.04320842
N       22.96488409      13.75750633      16.73201537       0.00609351      -0.03427384      -0.00162545
N       25.28631975      13.65380352      17.02917218      -0.00187896       0.01171600      -0.00161620
C       26.36548252      13.58333719      17.84519582      -0.01842401       0.00654294      -0.02350760
N       26.37197968      13.52562493      19.18444304      -0.00071477       0.00218647       0.02819935
C       25.12753178      13.55281590      19.68965414      -0.01391635       0.00427060       0.00568060
H       22.79266260      13.49798991      21.95807382      -0.00799562      -0.00150512       0.01597632
H       22.04812646      13.61587964      17.13569410       0.00125058       0.00445058       0.00263692
H       23.09643354      13.65135190      15.71890247       0.02129799       0.02130056       0.01122904
H       27.32644340      13.55724389      17.34218750       0.02597843      -0.00062015      -0.00651003
N       27.28968660      14.55314271      12.61835176       0.01047622      -0.01681656       0.03347988
C       27.09323103      14.23345855      13.97052141       0.02072875       0.03768363       0.04042237
O       28.01688395      14.20667494      14.78530129      -0.00123619       0.03718638      -0.00502548
N       25.77244656      13.95204021      14.28048942       0.05733869       0.00553199       0.02277895
C       24.68713145      13.91765789      13.39958371       0.01360525       0.00955422       0.01897371
O       23.54564275      13.64318356      13.81927512       0.00243689       0.04161177       0.00086029
C       24.98953354      14.23709968      12.00097444       0.00320514      -0.00709573      -0.00830209
C       23.86882510      14.21230801      10.99690695      -0.01195717      -0.00242661       0.00406646
C       26.27150378      14.54875781      11.68077676       0.01135039      -0.00874381       0.00898498
H       26.57371649      14.80653588      10.67033112      -0.01466660      -0.00626989       0.00178023
H       23.42401280      13.21218578      10.94081269      -0.00594182      -0.00773439       0.00301693
H       24.21973061      14.49734663      10.00000000      -0.00295625      -0.00785729       0.00727159
H       23.06855856      14.89804581      11.29668616      -0.01501319      -0.00159254      -0.00367668
H       25.57820696      13.77401845      15.30422129      -0.01091948      -0.01067625       0.02211252
N       29.27844549      11.31469258      14.82935141       0.00172418      -0.00007405      -0.01966791
C       28.35929337      11.18992250      15.88064665       0.03049997      -0.00621590      -0.00828924
O       28.68425724      11.27089078      17.06216006       0.03253423      -0.00578653       0.00411531
N       27.06193662      10.95513648      15.44915381      -0.03720129      -0.02181376      -0.01337437
C       26.61691254      10.89663708      14.12574994       0.01826718       0.00789586      -0.00552222
O       25.40594362      10.73873858      13.86992724      -0.00355275       0.01769279      -0.00084949
C       27.64110141      11.04975895      13.09331907       0.02846931       0.00459148       0.01162293
C       27.22112347      10.97652763      11.64868022       0.00167379       0.00228005       0.00665710
C       28.92056588      11.26194937      13.49818342       0.00525482       0.00261841       0.00008536
H       29.73404777      11.39911861      12.79276663       0.01360834       0.00868879       0.00161774
H       26.77947340      10.00000000      11.41899380       0.00092920       0.00037692       0.00608169
H       28.07126709      11.13992991      10.97828977      -0.00127064      -0.00029568       0.00593976
H       26.45204609      11.72552838      11.43180656      -0.00059444       0.00032087       0.00186456
H       26.35915237      10.78415610      16.21126745      -0.00069574       0.00504810       0.01234181
C       10.99431890      12.05616904      17.95530408      -0.02936509      -0.01616813       0.01547187
C       10.96067931      11.96916268      19.33687775      -0.00508101      -0.01493862       0.00903537
C       12.15009973      11.86104611      20.08981142      -0.00579424      -0.01328746       0.02327980
C       13.36649750      11.83129055      19.44389514       0.00394664      -0.00308738       0.02685106
C       13.44933709      11.93047793      18.02875642      -0.01290077      -0.00126653      -0.05344964
C       14.70176892      11.92291024      17.36756425      -0.01287197       0.01848058       0.01816742
C       14.71826000      12.03033727      15.99758916       0.00621950       0.01218754       0.00840854
N       15.78512011      12.07210541      15.11583763      -0.01647923       0.01050296       0.00676869
C       15.30191409      12.17152478      13.81515177       0.00503371       0.01407422      -0.01688598
C       16.02600590      12.26071993      12.62634090       0.00187022      -0.00185222      -0.00566311
C       15.30457381      12.30265084      11.43584328       0.00016558       0.00423769      -0.01274547
C       13.89309200      12.24282048      11.42591547       0.00701500       0.00657843      -0.00746803
C       13.16964821      12.16916069      12.60780094      -0.00041343       0.01443572      -0.01593878
C       13.86736375      12.15838716      13.83975000       0.01336305       0.02436223       0.01487949
C       13.50567129      12.11090586      15.23011840       0.00704945       0.01659339       0.00236336
N       12.30164244      12.17248509      15.87141573      -0.02595580       0.00060524       0.02681147
C       12.22921151      12.05696054      17.26996348       0.06089144      -0.01922723      -0.01883179
C       11.07939526      12.41873076      15.06022758       0.00171801      -0.00428706      -0.00792671
H       10.05713578      12.10297084      17.41888777      -0.01732152       0.00242506      -0.00383043
H       10.00000000      11.97669757      19.84229745       0.01167641      -0.01350343       0.00186765
H       12.10131803      11.79138728      21.17187642       0.00340671       0.00105158      -0.01455399
H       14.28864053      11.73250376      20.00755087       0.01911101       0.01195203       0.01889504
H       15.61949954      11.82904510      17.94087812       0.00255413       0.04418184       0.00540497
H       16.75303226      12.18389275      15.39127325       0.02626279      -0.07385906      -0.02104757
H       17.11076508      12.29200511      12.63398889       0.00694404      -0.01875363      -0.01884310
H       15.84006417      12.37045370      10.49462136       0.00182086      -0.00048902      -0.01463781
H       13.36724016      12.25356274      10.47737554      -0.00072094      -0.00778633      -0.00786706
H       12.09030271      12.10317436      12.56660969       0.00572790       0.00900863      -0.00230525
H       11.32662720      13.12933252      14.27356103      -0.00132669       0.00863736      -0.01630439
H       10.71853463      11.48302554      14.62548963      -0.00946577      -0.01034972       0.00032756
H       10.30314303      12.86176258      15.67725391       0.01491548       0.00396721      -0.01177411
H       22.59030882      10.18116020      21.54789236       0.00081607      -0.00195507       0.01281746
H       30.22043213      11.56565985      15.10468772       0.02382076       0.00721349       0.02365826
H       25.36414697      13.37332888      21.80643278       0.00065255      -0.00201523       0.01130720
H       28.24320567      14.77743360      12.35798560      -0.00878495      -0.00126344      -0.01100175
91
Lattice="37.64154974198568 0.0 0.0 0.0 24.919458563137063 0.0 0.0 0.0 31.845912693730835" Properties=species:S:1:pos:R:3:forces:R:3 energy=-12181.788360345217 pbc="F F F"
N       21.66286728      10.50252584      20.38272023       0.04088569      -0.00165476      -0.00255722
C       20.53674335      10.62013252      19.58076066       0.01527595       0.00055330      -0.00999182
N       20.82684594      10.69825047      18.29425101      -0.02352148       0.00604106      -0.03093963
C       22.21995239      10.63038828      18.24946750      -0.03266484      -0.00140896       0.00086029
C       23.14268720      10.65495935      17.17559627      -0.00900143       0.00066489       0.03716067
N       22.77795913      10.71118693      15.87747040       0.00273823      -0.00378158       0.02423008
N       24.46480155      10.62203976      17.49444062       0.03026497       0.00557312      -0.04024445
C       24.85321932      10.55204560      18.78649152      -0.01731484       0.00286369      -0.01446863
N       24.06553039      10.48774385      19.87350382      -0.00439299       0.00088703       0.02745424
C       22.76325001      10.52466955      19.53897611      -0.00049519      -0.00240038      -0.00358566
H       19.54171082      10.63778057      20.00515916       0.00591765       0.01183582      -0.00604878
H       21.80319071      10.85378269      15.65668601      -0.01578143      -0.00319434      -0.02085473
H       23.48754110      10.79222092      15.13505751      -0.00238856       0.00829489      -0.04164262
H       25.92901722      10.57623119      18.94819784      -0.04110937      -0.00181468      -0.00879729
N       23.92159379      13.78025550      21.01902118       0.01605191       0.00136680       0.00487738
C       22.53278535      13.79859036      21.00569305       0.00703814       0.00796168       0.01256755
N       22.02874150      13.85692236      19.78615912      -0.01100381       0.01244414       0.00479202
C       23.14625857      13.87195204      18.95222536      -0.00021340       0.01141210       0.00561889
C       23.28563136      13.89886097      17.54530942       0.00977533      -0.00047514       0.02080485
N       22.23040121      13.94551447      16.69414353       0.00961953      -0.01332397       0.00994708
N       24.54640339      13.87750318      17.04099196      -0.00129532      -0.00047823      -0.00765058
C       25.61163680      13.83399739      17.87719795       0.00045560       0.00121356       0.01110614
N       25.59127118      13.80180302      19.21731779       0.01526875      -0.00075796       0.02900667
C       24.33598813      13.82147701      19.69686988       0.00741455       0.00294803       0.00927346
H       21.95578920      13.77608201      21.92054796       0.00524402       0.00167122       0.01295888
H       21.30816887      13.80409975      17.08504724       0.00816942      -0.01013529      -0.00341340
H       22.38480185      13.81365878      15.68668956       0.00951360       0.00393482       0.00927346
H       26.58259094      13.80753547      17.39175071      -0.00089423       0.00474471       0.01125166
N       26.60802930      14.57547791      12.63349859      -0.01838493      -0.00161774      -0.00700523
C       26.39069326      14.34529780      14.00124800      -0.01442286       0.00588474      -0.00451023
O       27.29979043      14.38311910      14.83097181      -0.00448452       0.00630023      -0.01172937
N       25.06969268      14.06619293      14.31057870       0.00699186       0.00459919      -0.00436573
C       24.00601079      13.94883212      13.41266707       0.00308430       0.00754465       0.00744694
O       22.85621338      13.68939242      13.82505769      -0.00297425       0.01813399      -0.00332958
C       24.33057917      14.16209426      12.00018948       0.01455142       0.00592177       0.02850479
C       23.22945321      14.02687931      10.98548059       0.04736949       0.00469638       0.02732414
C       25.61151484      14.47634817      11.67869794       0.00084486      -0.00079499       0.00899835
H       25.92747454      14.66046675      10.65566151      -0.00900143      -0.00861525       0.03002175
H       22.81617126      13.01243566      11.00898954      -0.02780597      -0.00841265      -0.02782705
H       23.59893635      14.23954837       9.97820032      -0.04748674      -0.01101255      -0.03488782
H       22.40877704      14.71383102      11.21869310      -0.02922779      -0.00381809      -0.03076531
H       24.85969247      13.94194457      15.34423268       0.01595987       0.00778427      -0.03093140
N       28.65754742      11.52057143      14.98104278      -0.01213252       0.00631874      -0.02996210
C       27.69207483      11.41141927      15.99428316       0.01349161      -0.00466347      -0.00406749
O       27.95870026      11.53672204      17.18667935       0.01268788      -0.03161789      -0.01264674
N       26.41813162      11.13882694      15.51288999       0.01573052      -0.00262407      -0.02091490
C       26.03759599      11.02039964      14.17617452       0.01524767       0.00234690      -0.00739295
O       24.84130845      10.83427020      13.86868375       0.01627868      -0.00211756       0.01011729
C       27.10677781      11.14589046      13.18816226       0.01291260       0.00438887       0.00421712
C       26.75264709      10.99614891      11.73288302       0.02780957      -0.00270172       0.03304691
C       28.36284662      11.40113137      13.63904182      -0.00346122       0.00669670      -0.01670909
H       29.20451967      11.52220985      12.96269473      -0.00573407       0.00694918       0.03384086
H       26.35759175       9.99350711      11.53311713      -0.00441098       0.00839722      -0.02760542
H       27.62780515      11.16299885      11.09707101      -0.01782032      -0.00514118      -0.03422653
H       25.96657567      11.70682742      11.45691606       0.00371164      -0.01169955      -0.02832687
H       25.68222616      10.98445101      16.24993674       0.00188308      -0.00771742      -0.00555770
C       11.04240554      12.08357694      17.96967557       0.04016938      -0.00740735       0.01342322
C       10.96162211      12.01592991      19.35060961      -0.00990800      -0.00970951      -0.00045714
C       12.12464991      11.99173927      20.15325603      -0.00308172      -0.00427163       0.02627770
C       13.36722057      12.01972066      19.55955069      -0.01740071      -0.00271714      -0.02019293
C       13.49867825      12.08956376      18.14592679      -0.00349464       0.00008742      -0.01218189
C       14.77594087      12.11786744      17.53795220      -0.02091387       0.00278862      -0.00264875
C       14.84336472      12.16362766      16.16769859      -0.04645932       0.01254698      -0.00762846
N       15.94082794      12.20174474      15.33041238       0.00416313       0.00978459       0.00499668
C       15.51268222      12.24711233      14.00998213      -0.01879117       0.01203174      -0.03917127
C       16.28514572      12.30619628      12.84994708       0.00629458      -0.00203734      -0.02873362
C       15.61159221      12.31385628      11.63102184      -0.00421455      -0.00215304      -0.02410512
C       14.20069468      12.25141448      11.56396718       0.01045565       0.00439247       0.00346276
C       13.42960037      12.20443931      12.71614195       0.01793499       0.00565900       0.01761823
C       14.07814737      12.22445181      13.97553444      -0.00916958       0.00965861       0.01168464
C       13.65953421      12.19849922      15.35020984       0.00043657       0.01052970       0.00123567
N       12.42940755      12.23877171      15.94146511       0.02167697       0.00179772       0.03247869
C       12.30538180      12.13877730      17.33653966       0.03102962      -0.00184605      -0.00785781
C       11.23039294      12.43945989      15.08178316       0.04191875      -0.00560501       0.03039610
H       10.12772482      12.07028653      17.39088324       0.01934550      -0.00320308       0.04099676
H        9.98345287      11.97384279      19.81833343      -0.00138994      -0.00862451       0.01591359
H       12.03710538      11.94096953      21.23298824      -0.02056420      -0.00155809       0.01573721
H       14.27438929      11.98724140      20.15670256      -0.04225403       0.00497766       0.02245447
H       15.67483240      12.09872141      18.14699538      -0.00738729       0.00699340       0.02516287
H       16.90375205      12.20239018      15.64223781       0.04953745      -0.01830214      -0.03104042
H       17.36908073      12.34716988      12.90139913      -0.01574132      -0.02259434      -0.02303194
H       16.18496256      12.36112755      10.71067991      -0.00456525      -0.00482390      -0.00579835
H       13.71298380      12.23727636      10.59529702       0.01183067      -0.00245386      -0.01270022
H       12.35176689      12.13632508      12.63571630       0.03971223       0.00445521      -0.01745368
H       11.49635072      13.12489287      14.27924827      -0.01494222      -0.00198849      -0.01135039
H       10.89518815      11.48269348      14.67244709      -0.01753647       0.00934390      -0.00599273
H       10.43485332      12.89726039      15.66228808      -0.01425471       0.00378364      -0.02064185
H       21.69916241      10.44730078      21.39334419      -0.00769943       0.00153906       0.00447732
H       29.58477381      11.79426148      15.28820662      -0.03751703      -0.00804910       0.01936864
H       24.53327629      13.69039430      21.82168645       0.00807018      -0.00782027       0.01551867
H       27.56382454      14.79003254      12.37319596      -0.00630383      -0.00394973       0.00406749
91
Lattice="37.64154974198568 0.0 0.0 0.0 24.919458563137063 0.0 0.0 0.0 31.845912693730835" Properties=species:S:1:pos:R:3:forces:R:3 energy=-12181.867818360744 pbc="F F F"
N       20.80921495      10.75965512      20.22489061       0.04063577       0.00561272       0.00299276
C       19.71957746      10.88502440      19.37765714       0.02271518      -0.00071785      -0.00471540
N       20.06318990      10.96127361      18.10336833      -0.04734378      -0.00621950      -0.03351587
C       21.45891977      10.88325481      18.11532544      -0.04762558      -0.01370912       0.00549393
C       22.42937084      10.88188767      17.08227707      -0.00832832      -0.00042269       0.05295907
N       22.13126335      10.91733775      15.76755877       0.00472363       0.01732924       0.03371436
N       23.73491196      10.84140656      17.46175059       0.04351747      -0.00043657      -0.04128009
C       24.06695929      10.78348439      18.76946375      -0.02824871       0.00321645      -0.00409371
N       23.23182759      10.73096031      19.81964829      -0.01697751       0.01697134       0.01450051
C       21.94530572      10.77618945      19.42712514      -0.00366948      -0.00213864       0.01331112
H       18.70793311      10.90404660      19.76141393       0.01205179       0.01835665      -0.01169132
H       21.17475027      11.08022245      15.49119278      -0.02597174       0.00293980      -0.02373540
H       22.87984110      10.96435965      15.06071083      -0.00468969       0.00765058      -0.03552545
H       25.13481434      10.80410050      18.97978567      -0.04961304       0.00015992      -0.01918557
N       23.10433145      14.07003206      21.01456466       0.02002221      -0.00193501      -0.00156529
C       21.71602887      14.06564884      20.97358648       0.00807789      -0.00230371       0.00747060
N       21.23474698      14.09112148      19.74406782      -0.01463883       0.00320668       0.00249037
C       22.36848608      14.11125040      18.93179346      -0.00242558       0.00893561       0.00354812
C       22.53473158      14.11825807      17.52835095       0.01160750       0.00335735       0.01970185
N       21.49525064      14.14152182      16.65503969       0.00853452       0.00479871       0.01163681
N       23.80491884      14.10340940      17.05011395      -0.00014501       0.01113185      -0.01091948
C       24.85477573      14.08544545      17.90762202      -0.00171081       0.00504142       0.00908577
N       24.80831038      14.07873192      19.24660404       0.01686541       0.00454828       0.02361044
C       23.54348430      14.09162511      19.70045653       0.00705819       0.00214224       0.00180646
H       21.12163268      14.05405388      21.87745988       0.00644473      -0.00238804       0.01615733
H       20.56947827      13.99253986      17.03414339       0.00658922      -0.02083262      -0.00531601
H       21.67085674      13.97274572      15.65634815       0.00381757      -0.00041703       0.00971260
H       25.83511369      14.05770257      17.44130366      -0.00510107       0.00793905       0.00972751
N       25.92660094      14.59986802      12.64784101      -0.01856337      -0.00896389      -0.01447943
C       25.68652101      14.45600063      14.02331713       0.01156585      -0.00801207       0.00289403
O       26.58133176      14.55739543      14.86326289       0.01746756       0.01177874      -0.02656155
N       24.36269324      14.17873962      14.32731711       0.02676056      -0.01254493      -0.00367925
C       23.32009399      13.97761578      13.42033721       0.02592546       0.00723354       0.01067316
O       22.16337137      13.72989159      13.82615393       0.02586376       0.03007882      -0.01128097
C       23.67210692      14.08621848      12.00386651       0.02228632       0.01107271       0.03566429
C       22.59752039      13.84072661      10.98238307       0.06608301       0.01400943       0.03513670
C       24.95310801      14.40344161      11.68424809       0.00234999       0.00258807       0.00803058
H       25.28707141      14.51214990      10.65592621      -0.01080789      -0.00201780       0.03921755
H       22.21183231      12.82020463      11.08252724      -0.03462145      -0.01287300      -0.04024034
H       22.98659235      13.98040555       9.97012851      -0.06247678      -0.01689935      -0.05209261
H       21.75615743      14.52302871      11.14321765      -0.03738436      -0.00660774      -0.04200412
H       24.13770469      14.11347143      15.36495306       0.02701098       0.00005039      -0.03641557
N       28.03445433      11.72308949      15.12454111       0.00564511       0.00516483      -0.00573459
C       27.02661846      11.64380133      16.09842312      -0.01290488      -0.00382323      -0.04650149
O       27.24351287      11.83172825      17.29173370       0.00422535      -0.00782078       0.03017755
N       25.77738865      11.32403329      15.57568930       0.01961649       0.00207642      -0.00691318
C       25.46062361      11.14143382      14.22903734       0.04067845       0.00840288      -0.00171287
O       24.28256786      10.92272659      13.87350702       0.01738940       0.00366177       0.01904519
C       26.57135253      11.24108759      13.28543482       0.02653019       0.00346328       0.01681862
C       26.28726888      11.01594300      11.82543303       0.03150167      -0.00064535       0.03723883
C       27.80231059      11.53823628      13.77818998       0.00048131       0.00378621      -0.01094724
H       28.67169503      11.64278774      13.13484092      -0.01006433       0.00564717       0.03093809
H       25.93831539       9.99084035      11.65480232      -0.00597730       0.01343247      -0.03705988
H       27.18394343      11.18807560      11.22185699      -0.02351325      -0.00915159      -0.04513263
H       25.48832727      11.68363969      11.48699957       0.00358258      -0.01335328      -0.03963613
H       25.00821375      11.18567003      16.28294515       0.02634507      -0.00417701      -0.00980053
C       11.10096615      12.11182746      17.98323146       0.05493522       0.00052039       0.01394464
C       10.96958285      12.06460508      19.36162231      -0.00750248      -0.00483676      -0.00809898
C       12.09834394      12.12552757      20.21088501       0.00842396       0.00244409       0.02325254
C       13.36034044      12.21181269      19.66699249      -0.01310646       0.00003805      -0.04056224
C       13.54478600      12.25092955      18.25815501       0.00480796      -0.00711321      -0.01118687
C       14.84346407      12.30952758      17.69985989      -0.02892080      -0.00959690       0.00202192
C       14.96632650      12.29467064      16.33360128      -0.05453979       0.00913513      -0.00327147
N       16.09799235      12.32808618      15.54446197       0.01429842       0.01048239       0.00572173
C       15.72385423      12.32017098      14.20608805      -0.02152682       0.00554176      -0.04574610
C       16.54254960      12.35166805      13.07729790       0.00031727      -0.00362268      -0.04525039
C       15.91729553      12.32412936      11.83285900       0.01107323      -0.00224560      -0.01587811
C       14.50978590      12.25682024      11.70869499       0.00468661       0.00775393       0.00755390
C       13.69154870      12.23590578      12.82829250       0.04269677      -0.00311412       0.04340897
C       14.29062332      12.28620695      14.11175382      -0.04364191       0.01866055      -0.07537395
C       13.81500422      12.28396559      15.46758446       0.00266366       0.00729936       0.03431909
N       12.56219715      12.30626352      16.00895382       0.02960060       0.00371319       0.05640487
C       12.38505686      12.22365384      17.40013279       0.04052059       0.00546462       0.00265338
C       11.38786227      12.45978507      15.10607697       0.05403225      -0.00396258       0.03755765
H       10.21282089      12.03617409      17.36772143       0.03235425       0.00031985       0.05316785
H        9.97786124      11.97248152      19.79202401      -0.00531653      -0.00602667       0.01357903
H       11.97087383      12.09138342      21.28715364      -0.03341252       0.00092920       0.01753544
H       14.24495566      12.24205647      20.29732410      -0.05614673       0.00162597       0.03332253
H       15.71737170      12.36211220      18.34216038      -0.00386643      -0.02539942       0.02985977
H       17.04276357      12.23225745      15.89840580       0.06567164       0.01961186      -0.04113560
H       17.62308041      12.40630664      13.17151618      -0.01742591      -0.02901490      -0.02853462
H       16.52741246      12.35170182      10.93580983      -0.00199980      -0.00530624      -0.01194226
H       14.06185705      12.22144230      10.72117758       0.02435041      -0.00530624      -0.00555050
H       12.61732802      12.16796996      12.70699135       0.05160050      -0.00489590      -0.02077863
H       11.66988068      13.11960551      14.28850651      -0.01706184       0.00246055      -0.01694563
H       11.07611763      11.48457681      14.72219919      -0.01354354       0.01415752      -0.01220811
H       10.57094731      12.92834041      15.64832738      -0.00981956       0.00049108      -0.02748972
H       20.80665138      10.71366623      21.23650128      -0.01995176       0.00395898       0.00995943
H       28.94334681      12.02164433      15.46299289      -0.04471149      -0.00765417       0.00135034
H       23.70038406      14.00881253      21.83151444       0.01283906      -0.00587908       0.01536131
H       26.88585399      14.80276185      12.39063979      -0.00961130      -0.00414410       0.00404486
91
Lattice="37.64154974198568 0.0 0.0 0.0 24.919458563137063 0.0 0.0 0.0 31.845912693730835" Properties=species:S:1:pos:R:3:forces:R:3 energy=-12182.060186638397 pbc="F F F"
N       19.96085218      11.01913479      20.05991783       0.03785693       0.00331055      -0.00243843
C       18.90933702      11.15254315      19.17171305       0.00798276       0.00739141      -0.02330397
N       19.30388158      11.22807140      17.90985967      -0.05984963       0.00853966      -0.05186584